LAMMPS data file. CGCMM style. atom_style angle generated by VMD/TopoTools v1.2 on Mon Nov 12 18:18:49 CET 2012
 10 atoms
 9 bonds
 0 angles
 0 dihedrals
 0 impropers
 1 atom types
 1 bond types
 1 angle types
 0 dihedral types
 0 improper types
 0.0 50.000000  xlo xhi
 0.0 50.000000  ylo yhi
 0.0 50.000000  zlo zhi

# Pair Coeffs
#
# 1  A

# Bond Coeffs
#
# 1  A-A

# Angle Coeffs
#
# 1  A-A-A

 Masses

 1 1.000000 # A

 Atoms

1 1 1 10.000000 10.000000 19.000000 # A 
2 1 1 10.000000 10.000000 18.000000 # A 
3 1 1 10.000000 10.000000 17.000000 # A 
4 1 1 10.000000 10.000000 16.000000 # A 
5 1 1 10.000000 10.000000 15.000000 # A 
6 1 1 10.000000 10.000000 14.000000 # A 
7 1 1 10.000000 10.000000 13.000000 # A 
8 1 1 10.000000 10.000000 12.000000 # A 
9 1 1 10.000000 10.000000 11.000000 # A 
10 1 1 10.000000 10.000000 10.000000 # A 

 Bonds

1 1 1 2
2 1 2 3
3 1 3 4
4 1 4 5
5 1 5 6
6 1 6 7
7 1 7 8
8 1 8 9
9 1 9 10
