LAMMPS data file from restart file: timestep = 0, procs = 1

2 atoms
1 bonds

1 atom types
1 bond types

0.0000000000000000e+00 1.0000000000000000e+01 xlo xhi
0.0000000000000000e+00 1.0000000000000000e+01 ylo yhi
0.0000000000000000e+00 1.0000000000000001e+01 zlo zhi

Masses

1 1

Atoms

1 1 1 5.0000000000000000e+00 5.0000000000000000e+00 5.0000000000000000e+00 0 0 0
2 1 1 5.5000000000000000e+00 5.0000000000000000e+00 5.0000000000000000e+00 0 0 0

Velocities

1 0.0000000000000000e+00 0.0000000000000000e+00 0.0000000000000000e+00
2 0.0000000000000000e+00 0.0000000000000000e+00 0.0000000000000000e+00

Bonds

1 1 1 2
