ITEM: TIMESTEP
74000
ITEM: NUMBER OF ATOMS
12941
ITEM: BOX BOUNDS pp pp pp
0 64
0 64
-0.01 0.01
ITEM: ATOMS id type xs ys zs vx vy vz 
14593 1 0.0161455 0.00258736 0.5 0.950285 -0.458181 0 
15748 1 0.0340783 0.00812646 0.5 -0.0332834 0.4786 0 
15242 1 0.0439438 0.0110229 0.5 0.162186 0.0623229 0 
15497 1 0.0485883 0.0122282 0.5 -0.146339 -0.341003 0 
16003 1 0.0684476 0.998859 0.5 1.22047 0.292785 0 
13574 1 0.0616704 0.00608784 0.5 0.480903 -0.473628 0 
1926 1 0.0628639 0.012232 0.5 0.506744 -0.175489 0 
14341 1 0.0738796 0.0069411 0.5 0.250221 -0.0142557 0 
15875 1 0.0810786 0.99933 0.5 0.672503 0.236893 0 
131 1 0.0826562 0.00599984 0.5 0.491761 -0.310578 0 
14469 1 0.0898918 0.998774 0.5 0.59525 0.382176 0 
15874 1 0.0970877 0.998709 0.5 0.948739 0.0634265 0 
15496 1 0.101109 0.00219351 0.5 0.941538 -0.287888 0 
14087 1 0.106416 0.0108799 0.5 -0.45292 0.0233937 0 
15878 1 0.119651 0.0053628 0.5 0.725056 -0.137653 0 
14092 1 0.111885 0.00550817 0.5 -0.555247 0.583688 0 
13705 1 0.127319 0.00286776 0.5 0.514972 0.299601 0 
15628 1 0.136789 0.010093 0.5 0.0141823 0.508745 0 
14729 1 0.139967 0.00075639 0.5 0.935661 0.183225 0 
15752 1 0.147109 0.00422385 0.5 0.483667 0.0692166 0 
14989 1 0.160256 0.000791924 0.5 0.589452 -0.0667264 0 
7 1 0.157206 0.00477831 0.5 0.460488 0.0273562 0 
14860 1 0.174127 0.00616592 0.5 0.771728 0.00332473 0 
14347 1 0.166973 0.00508026 0.5 0.798542 0.299946 0 
14858 1 0.188846 0.999502 0.5 0.24364 0.0221539 0 
16012 1 0.194228 0.00411962 0.5 1.02565 -0.783287 0 
16015 1 0.197407 0.00743648 0.5 0.0944926 -0.607119 0 
15883 1 0.205249 0.00355738 0.5 0.373352 0.51681 0 
15115 1 0.213878 0.0076104 0.5 1.00215 0.075468 0 
15375 1 0.216626 0.00258939 0.5 0.333427 0.438537 0 
15757 1 0.222024 0.0111296 0.5 1.38319 -0.215528 0 
15377 1 0.23187 0.00642161 0.5 1.06773 0.0787797 0 
16267 1 0.243121 0.00445619 0.5 1.09851 -0.317924 0 
15253 1 0.249968 0.00151872 0.5 0.842693 0.0536874 0 
14476 1 0.245506 0.00588306 0.5 0.956421 0.00491654 0 
14739 1 0.241874 0.996658 0.5 0.79567 -0.190869 0 
15769 1 0.256288 0.000819798 0.5 0.910746 -0.134905 0 
22 1 0.268808 0.0041173 0.5 0.490721 -0.647575 0 
14994 1 0.261115 0.00340458 0.5 1.39861 -0.0954081 0 
16275 1 0.273486 0.00145659 0.5 1.16244 -0.228038 0 
15123 1 0.285665 0.00907537 0.5 0.324622 0.3393 0 
1055 1 0.290805 0.0036357 0.5 0.875714 -0.10192 0 
284 1 0.303969 0.00742384 0.5 0.961592 0.123418 0 
545 1 0.310111 0.00555591 0.5 0.760751 0.346516 0 
16027 1 0.313806 0.00494007 0.5 0.739524 0.681438 0 
286 1 0.320188 0.00613747 0.5 1.66826 -0.0596572 0 
30 1 0.323536 0.00999972 0.5 0.924931 -0.000499138 0 
32 1 0.332184 0.00852713 0.5 0.516736 -0.748729 0 
15904 1 0.329853 0.0034268 0.5 -0.054616 0.0124976 0 
15902 1 0.344106 0.00704774 0.5 0.492494 -0.100094 0 
1568 1 0.354137 0.00589574 0.5 1.0342 0.225091 0 
933 1 0.358993 0.00144643 0.5 0.612258 0.235426 0 
160 1 0.354731 0.996899 0.5 0.636589 -0.0433056 0 
1058 1 0.373136 0.00434718 0.5 1.14754 0.135998 0 
161 1 0.379708 0.00377171 0.5 0.660756 0.167846 0 
806 1 0.381813 0.998336 0.5 0.707705 -0.0290617 0 
15782 1 0.387804 0.0101427 0.5 0.727784 0.338758 0 
550 1 0.382721 0.0109032 0.5 0.590683 0.260808 0 
37 1 0.391339 0.000775593 0.5 1.1789 0.0413421 0 
807 1 0.392957 0.00639473 0.5 0.752944 0.505149 0 
167 1 0.406405 0.00223351 0.5 1.16855 0.183423 0 
15911 1 0.412751 0.00233851 0.5 0.840954 0.300107 0 
554 1 0.402107 0.00673876 0.5 0.534233 -0.1348 0 
427 1 0.422132 0.00359068 0.5 0.325899 0.248207 0 
300 1 0.43279 0.00524837 0.5 0.68529 -0.278921 0 
941 1 0.434254 0.00271025 0.5 0.960874 -0.524871 0 
305 1 0.44615 0.995511 0.5 0.508032 -0.0875108 0 
1207 1 0.452936 0.00400946 0.5 0.731807 -0.372111 0 
813 1 0.455614 0.996942 0.5 0.716491 0.0657165 0 
15916 1 0.460277 0.999332 0.5 1.10832 0.025773 0 
431 1 0.465717 0.00363319 0.5 0.368116 0.224291 0 
571 1 0.460642 0.0101576 0.5 0.546844 -0.403802 0 
560 1 0.470305 0.00312724 0.5 1.15401 0.0287653 0 
52 1 0.483574 0.00908786 0.5 0.986525 -0.383357 0 
565 1 0.475835 0.0028545 0.5 0.631564 0.363369 0 
443 1 0.495618 0.01078 0.5 0.843143 0.840031 0 
183 1 0.497452 0.0143523 0.5 1.21716 0.628896 0 
46 1 0.498787 0.00110775 0.5 0.57379 0.166668 0 
304 1 0.517867 0.00242146 0.5 1.37307 -0.230662 0 
692 1 0.50971 0.00698387 0.5 0.0884284 -0.0892517 0 
72 1 0.526264 0.00691744 0.5 1.3294 0.422724 0 
705 1 0.534279 0.997953 0.5 0.118572 -0.517834 0 
330 1 0.540673 0.00998161 0.5 0.439694 -0.916789 0 
202 1 0.546744 0.00215979 0.5 0.768129 0.0671469 0 
458 1 0.53783 0.00800883 0.5 0.433096 -0.320656 0 
16333 1 0.554736 0.0112524 0.5 0.754198 0.0885863 0 
588 1 0.557034 0.00495586 0.5 0.882376 -0.260751 0 
472 1 0.563694 0.00249608 0.5 1.36177 0.279327 0 
325 1 0.573441 0.00758185 0.5 0.305009 -0.0595926 0 
599 1 0.580238 0.00380625 0.5 0.741537 -0.607186 0 
327 1 0.586593 0.00385948 0.5 1.0919 -0.580638 0 
70 1 0.599076 0.0103573 0.5 0.682673 0.0405819 0 
16080 1 0.595701 0.00517013 0.5 0.787469 0.170014 0 
16332 1 0.607758 0.0114249 0.5 0.370729 -0.20733 0 
345 1 0.61702 0.00687176 0.5 0.54868 0.334075 0 
728 1 0.623177 0.00244213 0.5 0.574296 0.00242494 0 
16212 1 0.631075 0.0133108 0.5 0.774181 0.334042 0 
469 1 0.643851 0.0156623 0.5 0.564498 0.797642 0 
346 1 0.632676 0.00673245 0.5 0.849939 0.137314 0 
347 1 0.639459 0.00623023 0.5 0.730546 0.326248 0 
732 1 0.655834 0.0103269 0.5 1.45717 0.214599 0 
1244 1 0.666411 0.00509243 0.5 0.500785 0.0612298 0 
610 1 0.661808 0.0107563 0.5 0.973537 -0.0336216 0 
96 1 0.664658 0.0171155 0.5 0.608694 0.301791 0 
981 1 0.671312 0.0127371 0.5 0.593977 -0.301005 0 
16101 1 0.677764 0.00757277 0.5 0.467109 -0.0325068 0 
16352 1 0.684705 0.0113837 0.5 0.961366 0.349378 0 
16363 1 0.697739 0.00373669 0.5 1.34174 -0.628795 0 
15847 1 0.712641 0.00413014 0.5 0.292487 0.331121 0 
353 1 0.715806 0.0102738 0.5 1.27437 -0.626408 0 
614 1 0.72448 0.00876579 0.5 0.577453 0.0834452 0 
871 1 0.739855 0.00980343 0.5 1.24211 0.448829 0 
616 1 0.736523 0.00280187 0.5 1.25721 0.506882 0 
755 1 0.725783 0.00206403 0.5 0.952391 -0.0989623 0 
484 1 0.746828 0.00811818 0.5 1.24056 -0.463575 0 
16368 1 0.746424 0.0022489 0.5 0.996491 -0.342433 0 
108 1 0.756309 0.0130839 0.5 0.608031 0.479869 0 
367 1 0.767233 0.00505429 0.5 0.667193 0.00905645 0 
362 1 0.775604 0.00236306 0.5 0.822284 0.361722 0 
15601 1 0.779162 0.0100527 0.5 0.835348 0.412253 0 
14706 1 0.784051 0.00392464 0.5 0.863032 -0.136787 0 
15471 1 0.790333 0.00793054 0.5 0.224787 -0.298635 0 
15728 1 0.792972 0.000706249 0.5 0.856995 -0.213039 0 
15858 1 0.80104 0.00547244 0.5 0.868605 -0.615298 0 
15473 1 0.815334 0.00636331 0.5 0.406808 -0.106932 0 
15215 1 0.812264 0.00384668 0.5 1.18344 0.104622 0 
15853 1 0.823287 0.00910626 0.5 0.809331 0.299191 0 
15472 1 0.830199 0.00714671 0.5 1.29633 -0.0260529 0 
15982 1 0.842893 0.0097342 0.5 1.22351 -0.434013 0 
15857 1 0.840518 0.00210837 0.5 0.83573 -0.31389 0 
15986 1 0.848044 0.0072412 0.5 1.29001 0.543077 0 
15985 1 0.849898 0.994246 0.5 0.839217 0.00808625 0 
15867 1 0.852963 0.0116858 0.5 -0.19543 0.106561 0 
16251 1 0.858087 0.0091837 0.5 0.638008 0.0363538 0 
15602 1 0.866177 0.00557241 0.5 1.30645 -0.306186 0 
15356 1 0.865529 0.0105144 0.5 0.363097 -0.196769 0 
15486 1 0.876416 0.00967926 0.5 -0.198504 -0.14651 0 
15865 1 0.89024 0.00310278 0.5 0.876819 -0.135514 0 
15610 1 0.895876 0.0101696 0.5 0.648479 -0.448404 0 
15615 1 0.905137 0.00721187 0.5 0.00898558 0.100894 0 
16120 1 0.920104 0.00672118 0.5 0.828029 -0.157137 0 
16254 1 0.913499 0.00085584 0.5 0.415828 0.380249 0 
15484 1 0.921673 0.0126217 0.5 0.076914 0.205825 0 
14336 1 0.926909 0.00125256 0.5 0.813464 -0.0778204 0 
15743 1 0.927989 0.00699671 0.5 1.04826 -1.01205 0 
386 1 0.93767 0.00781689 0.5 0.803897 -0.10079 0 
16123 1 0.939699 0.00470773 0.5 0.617471 0.0659373 0 
15993 1 0.948644 0.000963762 0.5 0.602996 -0.160544 0 
15359 1 0.95744 0.00231383 0.5 0.596557 0.014688 0 
15739 1 0.962042 0.00656289 0.5 1.31132 -0.133009 0 
15488 1 0.966436 0.999083 0.5 0.623109 -0.182939 0 
15872 1 0.969732 0.00502043 0.5 0.821996 -0.302949 0 
15493 1 0.982845 0.00196765 0.5 0.921758 -0.88599 0 
15363 1 0.988511 0.00831242 0.5 0.615969 -0.316505 0 
16258 1 0.979708 0.0118136 0.5 0.654914 -0.938243 0 
513 1 0.0013682 0.00687947 0.5 0.740353 0.0881807 0 
16256 1 0.996057 0.00665789 0.5 0.448043 0.264028 0 
15362 1 0.00993598 0.999678 0.5 0.257329 -0.0561886 0 
14338 1 0.00690761 0.994331 0.5 0.0994243 0.343492 0 
16004 1 0.0201923 0.00603328 0.5 1.07976 -0.332661 0 
15366 1 0.0280788 0.0172244 0.5 0.748485 -0.178152 0 
14213 1 0.0274301 0.0107205 0.5 -0.0891048 -0.719974 0 
12427 1 0.0380851 0.016249 0.5 0.241303 0.0952708 0 
1539 1 0.0328944 0.0234072 0.5 0.0893162 0.309089 0 
14979 1 0.0428322 0.0253218 0.5 0.26669 0.137813 0 
1029 1 0.0445033 0.0192311 0.5 0.454836 0.207909 0 
4 1 0.0556283 0.016255 0.5 0.203027 0.253669 0 
13830 1 0.0687961 0.00916559 0.5 0.617413 0.583462 0 
15237 1 0.064602 0.018652 0.5 0.438802 0.0989127 0 
264 1 0.0729085 0.0152465 0.5 0.392757 0.340443 0 
6 1 0.0799224 0.0129177 0.5 0.998981 -0.22563 0 
15368 1 0.086315 0.0117788 0.5 0.511427 0.59014 0 
16005 1 0.0934592 0.0080894 0.5 -0.0605574 -0.0664182 0 
15755 1 0.101828 0.00992555 0.5 0.727218 -0.0198978 0 
15881 1 0.109087 0.0159949 0.5 0.687594 -0.0594673 0 
648 1 0.11394 0.0130054 0.5 0.163462 0.291428 0 
1158 1 0.121702 0.0158792 0.5 0.705591 0.700274 0 
647 1 0.128203 0.0108578 0.5 0.0301874 0.18724 0 
15750 1 0.136347 0.0149632 0.5 0.901609 0.248115 0 
14091 1 0.144921 0.0096292 0.5 0.217961 0.513193 0 
140 1 0.150727 0.0116851 0.5 0.337108 0.401547 0 
15626 1 0.152374 0.0164862 0.5 0.451935 -0.354449 0 
14731 1 0.143383 0.0193916 0.5 0.747865 -0.137727 0 
14986 1 0.16029 0.0125297 0.5 0.710098 -0.525589 0 
15756 1 0.166219 0.011388 0.5 0.344712 -0.365581 0 
15886 1 0.186324 0.00797201 0.5 0.373459 -0.347738 0 
267 1 0.176651 0.0125135 0.5 0.1921 -0.268822 0 
15500 1 0.188377 0.0115731 0.5 1.30468 0.239253 0 
909 1 0.197804 0.0113029 0.5 0.572195 -0.0263455 0 
139 1 0.206165 0.0119528 0.5 0.948623 -0.493108 0 
13 1 0.21375 0.0125565 0.5 -0.0879227 -0.0428742 0 
12 1 0.228761 0.00683153 0.5 0.464886 -0.510722 0 
652 1 0.236861 0.0135387 0.5 -0.115398 0.240682 0 
15505 1 0.241589 0.0173438 0.5 1.48744e-05 -0.0346077 0 
149 1 0.252248 0.0155052 0.5 0.500775 0.496019 0 
15378 1 0.264048 0.0126993 0.5 0.891856 0.156069 0 
15639 1 0.276359 0.00989041 0.5 1.01935 0.190051 0 
15765 1 0.279444 0.0103334 0.5 -0.141247 -0.00193293 0 
15899 1 0.292295 0.0148349 0.5 0.741425 -0.190712 0 
15258 1 0.296147 0.00724884 0.5 1.02859 -0.224675 0 
15511 1 0.296659 0.011824 0.5 0.271287 0.515961 0 
15257 1 0.305002 0.014807 0.5 0.554541 0.314601 0 
15640 1 0.313263 0.0146532 0.5 0.624976 0.297103 0 
1315 1 0.321142 0.0179775 0.5 0.452281 0.00916346 0 
15515 1 0.325496 0.0167013 0.5 0.465216 0.281115 0 
16159 1 0.332064 0.0182933 0.5 0.99607 -0.564041 0 
15646 1 0.338383 0.0143721 0.5 -0.0321432 -0.011095 0 
671 1 0.349443 0.0113814 0.5 0.659129 -0.548537 0 
158 1 0.347411 0.0186626 0.5 0.0445681 0.168651 0 
1313 1 0.35961 0.0116773 0.5 1.05899 0.295021 0 
1065 1 0.359323 0.0200488 0.5 0.651447 0.388342 0 
673 1 0.365382 0.0158978 0.5 0.193229 0.559508 0 
547 1 0.368515 0.0105402 0.5 0.10834 -0.266847 0 
549 1 0.371597 0.015307 0.5 0.824107 -0.423948 0 
929 1 0.382038 0.0180497 0.5 0.923429 -0.344206 0 
932 1 0.399176 0.0132517 0.5 1.56262 0.325366 0 
16040 1 0.413242 0.00713207 0.5 0.321516 0.571938 0 
15523 1 0.408697 0.0145307 0.5 0.461848 -0.146865 0 
555 1 0.425872 0.00684902 0.5 0.826134 0.423509 0 
294 1 0.426308 0.0154416 0.5 0.214585 -0.126019 0 
1067 1 0.438254 0.0164459 0.5 0.959215 0.517051 0 
433 1 0.439368 0.00725783 0.5 0.327735 0.177327 0 
945 1 0.4481 0.00657854 0.5 0.474804 -0.733186 0 
424 1 0.443017 0.0142497 0.5 0.777554 -0.264841 0 
43 1 0.450345 0.0144443 0.5 0.812237 -0.578206 0 
558 1 0.456064 0.0132359 0.5 0.795197 0.0530671 0 
826 1 0.467109 0.0129187 0.5 1.49472 0.113031 0 
311 1 0.488686 0.017265 0.5 0.0714905 0.309591 0 
1086 1 0.47724 0.0140672 0.5 1.01906 0.472167 0 
583 1 0.500601 0.00898533 0.5 0.136812 -0.0768546 0 
1079 1 0.500412 0.0208158 0.5 0.747928 -0.130563 0 
827 1 0.508952 0.0108589 0.5 0.428752 -0.662457 0 
456 1 0.514715 0.0133 0.5 0.52406 0.875504 0 
1080 1 0.516432 0.0177163 0.5 1.14793 -0.481736 0 
310 1 0.521425 0.012348 0.5 0.8007 0.187144 0 
336 1 0.528572 0.0202488 0.5 0.300662 0.427765 0 
193 1 0.53495 0.0149465 0.5 0.310159 0.336053 0 
452 1 0.541176 0.0217629 0.5 1.09864 0.406827 0 
84 1 0.549229 0.0134992 0.5 1.10118 0.26965 0 
210 1 0.547692 0.0179669 0.5 0.657784 -0.0201753 0 
334 1 0.563939 0.0152196 0.5 0.62729 -0.042288 0 
16201 1 0.575098 0.0206402 0.5 0.832842 0.228396 0 
207 1 0.56766 0.00887505 0.5 0.324722 0.358067 0 
16331 1 0.590262 0.0112147 0.5 0.967083 0.0969375 0 
852 1 0.589243 0.0184328 0.5 0.625554 -0.369424 0 
722 1 0.60716 0.0174964 0.5 0.574574 -0.337536 0 
74 1 0.597113 0.017497 0.5 0.857458 -0.29184 0 
69 1 0.613118 0.0156387 0.5 0.951502 -0.111178 0 
600 1 0.621939 0.0143852 0.5 1.05883 0.216589 0 
83 1 0.627335 0.0196417 0.5 1.31182 -0.713056 0 
81 1 0.641653 0.0230098 0.5 -0.00467392 0.220773 0 
604 1 0.65012 0.011823 0.5 0.861874 0.219796 0 
597 1 0.655041 0.0220053 0.5 0.874051 0.681164 0 
985 1 0.653122 0.0167796 0.5 0.969063 -0.646146 0 
725 1 0.662732 0.0241606 0.5 0.45111 0.506094 0 
351 1 0.671132 0.0255859 0.5 0.373689 0.431834 0 
225 1 0.67722 0.0178877 0.5 0.831851 0.714061 0 
16229 1 0.688552 0.0168898 0.5 0.571648 0.38432 0 
231 1 0.693175 0.010058 0.5 0.479821 -0.102617 0 
100 1 0.701784 0.0140994 0.5 1.11275 -0.204425 0 
16358 1 0.705835 0.0100151 0.5 0.651055 -0.193208 0 
15719 1 0.710899 0.0201063 0.5 0.924504 0.521144 0 
487 1 0.717227 0.014404 0.5 0.59733 -0.0472193 0 
359 1 0.730509 0.0113379 0.5 0.610962 -0.240769 0 
234 1 0.724984 0.0209658 0.5 0.969055 -0.176636 0 
102 1 0.742366 0.0175712 0.5 0.982745 0.220057 0 
497 1 0.736487 0.0193609 0.5 0.559154 -0.240519 0 
111 1 0.749504 0.0143525 0.5 0.822875 0.348659 0 
622 1 0.749177 0.0211718 0.5 1.03244 0.661129 0 
16365 1 0.762068 0.0187036 0.5 0.49629 0.341579 0 
15860 1 0.767082 0.0188113 0.5 0.273155 -0.668885 0 
625 1 0.758172 0.0209487 0.5 0.728122 -0.15676 0 
235 1 0.773989 0.018308 0.5 0.862709 -0.224088 0 
15474 1 0.773521 0.0108497 0.5 1.08569 0.023456 0 
16371 1 0.783749 0.017902 0.5 1.14754 -0.439621 0 
15086 1 0.791917 0.0120911 0.5 0.723178 0.262455 0 
498 1 0.807839 0.0107773 0.5 0.696068 0.768842 0 
15726 1 0.797068 0.0140443 0.5 0.809786 0.307264 0 
15723 1 0.809241 0.0170178 0.5 0.438338 0.404252 0 
16113 1 0.803031 0.02015 0.5 0.176144 -0.0832559 0 
15470 1 0.815638 0.0242128 0.5 1.45863 -0.549126 0 
15859 1 0.817877 0.0133192 0.5 1.33111 0.498396 0 
15344 1 0.830543 0.0141923 0.5 0.629522 0.259282 0 
16367 1 0.833886 0.006707 0.5 0.617354 0.535918 0 
15730 1 0.834742 0.0200106 0.5 0.551431 0.0386788 0 
15862 1 0.845783 0.0201372 0.5 0.792704 0.0686514 0 
15734 1 0.861995 0.0196332 0.5 0.868394 -0.0986879 0 
631 1 0.856205 0.0216744 0.5 0.484568 0.323554 0 
15603 1 0.869867 0.020349 0.5 1.23143 0.574263 0 
15737 1 0.872243 0.00647138 0.5 1.10561 -0.501426 0 
15988 1 0.873153 0.0234659 0.5 1.27119 0.042812 0 
16127 1 0.87828 0.00579159 0.5 0.522031 0.487673 0 
15863 1 0.887796 0.007253 0.5 0.0743043 -0.177773 0 
15733 1 0.899686 0.0106735 0.5 0.0916705 0.101987 0 
15604 1 0.898219 0.0187196 0.5 0.809931 0.476926 0 
15866 1 0.90418 0.0216696 0.5 0.995721 0.643077 0 
15108 1 0.909727 0.0113864 0.5 0.775555 0.200889 0 
15616 1 0.914267 0.0163684 0.5 1.1932 -0.610519 0 
764 1 0.928572 0.0192379 0.5 0.312234 0.357812 0 
16121 1 0.93169 0.0114409 0.5 0.997901 -0.0286515 0 
128 1 0.931428 0.0250167 0.5 0.631098 0.101823 0 
509 1 0.941512 0.0156284 0.5 1.85135 -0.0146606 0 
16377 1 0.94062 0.019334 0.5 0.583147 -0.213189 0 
16380 1 0.948685 0.00634234 0.5 0.829076 -0.431464 0 
15611 1 0.955395 0.0159921 0.5 0.377828 0.505639 0 
121 1 0.960154 0.014501 0.5 1.06248 0.353012 0 
16130 1 0.967533 0.0207806 0.5 0.628898 -0.707129 0 
15868 1 0.968654 0.0128211 0.5 0.902519 -0.36197 0 
16131 1 0.973713 0.00944455 0.5 0.581869 0.391043 0 
15491 1 0.977301 0.0164491 0.5 0.519552 0.666783 0 
771 1 0.986938 0.0159511 0.5 0.064506 0.0239516 0 
3 1 0.0058793 0.0104953 0.5 0.75367 -0.477543 0 
16000 1 0.00620197 0.0194129 0.5 -0.159925 -0.717692 0 
16001 1 1.00018 0.0179444 0.5 0.58078 0.125974 0 
393 1 0.0153263 0.0145006 0.5 -0.0485896 -0.27353 0 
14980 1 0.0125077 0.0110403 0.5 0.28135 0.377837 0 
16382 1 0.0169179 0.0266123 0.5 0.771325 -0.671024 0 
16129 1 0.0189748 0.0190608 0.5 0.275842 -0.00210612 0 
1283 1 0.0271254 0.029289 0.5 0.218501 -0.314591 0 
15110 1 0.0304231 0.022879 0.5 -0.0568877 -0.125332 0 
14981 1 0.0353021 0.0337044 0.5 0.677061 -0.129674 0 
15236 1 0.0482309 0.0344668 0.5 1.14659 0.0984931 0 
15490 1 0.0536394 0.0261721 0.5 0.0211478 -0.475018 0 
644 1 0.062677 0.0231419 0.5 0.295343 0.322708 0 
1793 1 0.0625893 0.0302597 0.5 0.520016 -0.0606571 0 
1406 1 0.0733675 0.0259616 0.5 1.30891 -0.573003 0 
16261 1 0.0765566 0.0217551 0.5 0.467521 0.213613 0 
16134 1 0.086872 0.0202878 0.5 0.380335 -0.138539 0 
14599 1 0.0925478 0.0130726 0.5 0.441439 -0.0563621 0 
15622 1 0.0976061 0.0222311 0.5 0.4959 -0.0495 0 
517 1 0.0965257 0.019486 0.5 0.474197 -0.425622 0 
137 1 0.10638 0.0211881 0.5 0.269177 -0.49209 0 
8 1 0.110797 0.0277557 0.5 0.716581 0.00191028 0 
16132 1 0.117724 0.0216242 0.5 0.337734 -0.234518 0 
14857 1 0.120043 0.0265944 0.5 0.852974 -0.0186451 0 
14600 1 0.129783 0.019243 0.5 0.66943 -0.00299463 0 
15499 1 0.133455 0.026549 0.5 -0.00910923 -0.0588491 0 
1031 1 0.140312 0.0247861 0.5 1.10096 -0.511454 0 
15498 1 0.145445 0.0297956 0.5 0.192594 -0.30156 0 
16009 1 0.151917 0.0256452 0.5 0.7856 0.138935 0 
395 1 0.166498 0.022995 0.5 0.845307 -0.267967 0 
774 1 0.157257 0.0222643 0.5 0.503794 0.556174 0 
14220 1 0.164822 0.0201333 0.5 0.170914 -0.302593 0 
11 1 0.176418 0.0164401 0.5 0.313102 0.270331 0 
15118 1 0.178251 0.0223827 0.5 -0.162709 -0.337707 0 
394 1 0.193671 0.0194525 0.5 0.477255 0.0911819 0 
522 1 0.186892 0.0228058 0.5 -0.573387 -0.0585863 0 
14988 1 0.19977 0.0188135 0.5 0.542479 -0.270069 0 
520 1 0.200384 0.0274184 0.5 0.807822 -0.0606605 0 
16274 1 0.209276 0.0185658 0.5 0.381092 -0.381088 0 
14736 1 0.214325 0.0226759 0.5 0.105145 0.166759 0 
141 1 0.222489 0.0187927 0.5 0.502867 -0.187204 0 
16272 1 0.231862 0.0233231 0.5 0.35707 0.24781 0 
16145 1 0.229012 0.0157531 0.5 0.697262 -0.267934 0 
18 1 0.247268 0.0175839 0.5 0.287826 -0.44196 0 
15633 1 0.249019 0.0305048 0.5 0.901046 -0.226935 0 
15894 1 0.2567 0.0131111 0.5 0.466549 -0.304057 0 
15513 1 0.265595 0.022726 0.5 0.507206 -0.246758 0 
402 1 0.264018 0.028822 0.5 0.88002 0.189575 0 
16151 1 0.2695 0.0128261 0.5 0.728913 -0.291479 0 
15380 1 0.276239 0.0250539 0.5 0.627911 0.108198 0 
14869 1 0.277631 0.0214464 0.5 0.734858 -0.476408 0 
15129 1 0.285951 0.0203809 0.5 0.199193 0.039941 0 
16156 1 0.294343 0.0247772 0.5 0.417204 0.158855 0 
159 1 0.306488 0.0173524 0.5 0.494871 0.00405442 0 
15512 1 0.29973 0.021656 0.5 0.13486 0.127951 0 
16025 1 0.311142 0.0253829 0.5 0.502967 -0.0113101 0 
15386 1 0.317761 0.0229938 0.5 0.493098 0.0396847 0 
15001 1 0.324721 0.0282592 0.5 1.20272 -0.0339449 0 
285 1 0.340928 0.0202986 0.5 0.189335 -0.0506657 0 
15382 1 0.336816 0.0270099 0.5 0.942541 -0.140848 0 
16030 1 0.348915 0.0308689 0.5 1.00609 -0.162146 0 
15642 1 0.353349 0.0233682 0.5 1.20431 -0.413726 0 
674 1 0.354734 0.0313827 0.5 0.644531 0.217927 0 
548 1 0.364064 0.0247979 0.5 0.635466 -0.072919 0 
1183 1 0.373913 0.0207878 0.5 0.398429 0.250321 0 
681 1 0.383172 0.0280759 0.5 0.662957 -0.214683 0 
166 1 0.388353 0.0284329 0.5 0.840026 -0.694873 0 
295 1 0.386006 0.0202534 0.5 0.465209 -0.587505 0 
678 1 0.395887 0.0224997 0.5 1.16053 -0.129736 0 
1318 1 0.397612 0.0347447 0.5 0.819629 0.884658 0 
935 1 0.401056 0.0174007 0.5 0.600215 -0.455608 0 
552 1 0.409018 0.0221767 0.5 0.352403 0.329203 0 
428 1 0.414704 0.0162801 0.5 1.00554 -0.571603 0 
420 1 0.416804 0.0269193 0.5 1.1487 0.509486 0 
430 1 0.420073 0.0227523 0.5 1.25994 -0.185868 0 
1196 1 0.424017 0.0231442 0.5 0.49449 0.383442 0 
39 1 0.433789 0.0210344 0.5 0.434642 -0.282104 0 
172 1 0.446057 0.0239707 0.5 0.564461 0.658428 0 
818 1 0.45269 0.0209645 0.5 0.502364 0.268965 0 
438 1 0.471037 0.0204713 0.5 0.626154 0.239385 0 
556 1 0.473911 0.0139669 0.5 0.921733 -0.319189 0 
564 1 0.479575 0.0273168 0.5 0.476291 -0.102736 0 
15915 1 0.472906 0.0257629 0.5 1.20191 -0.0414658 0 
703 1 0.485617 0.0297431 0.5 0.775634 -0.207645 0 
575 1 0.484546 0.0221189 0.5 0.562219 0.0721618 0 
961 1 0.507142 0.0198192 0.5 1.13166 -0.143398 0 
1091 1 0.508061 0.0261278 0.5 1.30711 -0.464342 0 
1085 1 0.496543 0.0281574 0.5 0.671227 -0.365937 0 
572 1 0.517471 0.0256979 0.5 0.690579 0.120054 0 
954 1 0.525846 0.0223723 0.5 1.58794 0.258902 0 
834 1 0.519731 0.0327797 0.5 0.0986807 -0.149195 0 
581 1 0.524868 0.0296479 0.5 0.58396 -0.0968548 0 
468 1 0.534955 0.0266564 0.5 0.67173 0.258812 0 
714 1 0.5404 0.0310352 0.5 0.389448 -0.191616 0 
455 1 0.552703 0.0281182 0.5 1.11243 -0.110249 0 
847 1 0.551529 0.0225337 0.5 0.917228 0.711045 0 
200 1 0.562433 0.0191106 0.5 1.44549 -0.663572 0 
335 1 0.564504 0.0260604 0.5 1.0425 0.207478 0 
337 1 0.575527 0.0267948 0.5 0.61334 -0.0942771 0 
76 1 0.578291 0.0161075 0.5 0.88916 0.0522887 0 
16339 1 0.585098 0.0223052 0.5 0.464574 0.156205 0 
979 1 0.592881 0.0256003 0.5 0.134984 0.173042 0 
591 1 0.602951 0.0265514 0.5 0.840235 -0.0774199 0 
846 1 0.607491 0.0237148 0.5 0.304707 0.171778 0 
211 1 0.61143 0.0308955 0.5 0.78448 0.175317 0 
730 1 0.627879 0.0257638 0.5 1.2229 0.123572 0 
1242 1 0.615188 0.0243893 0.5 0.2536 0.0932596 0 
212 1 0.636148 0.0198157 0.5 1.59859 0.213855 0 
855 1 0.639407 0.0318956 0.5 0.258833 -0.225209 0 
854 1 0.649203 0.0251687 0.5 0.604875 0.131804 0 
984 1 0.648362 0.0320267 0.5 0.945205 0.147735 0 
480 1 0.665031 0.0347482 0.5 0.504517 0.754496 0 
477 1 0.669208 0.0363445 0.5 0.924708 0.243147 0 
361 1 0.668132 0.0225242 0.5 0.430484 0.633279 0 
602 1 0.687769 0.0284143 0.5 0.900254 -0.446922 0 
475 1 0.683192 0.0206096 0.5 0.899298 -0.226919 0 
1759 1 0.695362 0.0197927 0.5 0.820001 -0.247066 0 
1124 1 0.691535 0.0349168 0.5 0.676628 0.231558 0 
608 1 0.701036 0.0226824 0.5 0.507308 0.243544 0 
228 1 0.703105 0.0279872 0.5 0.0809336 0.0158101 0 
485 1 0.712948 0.0240232 0.5 0.65327 0.373576 0 
739 1 0.718386 0.0265297 0.5 0.969953 -1.19203 0 
603 1 0.722212 0.0371042 0.5 1.19752 0.432533 0 
105 1 0.724263 0.0275283 0.5 0.391847 -0.652092 0 
233 1 0.732779 0.0282651 0.5 1.03949 0.565913 0 
352 1 0.739904 0.0275981 0.5 0.929216 -0.26945 0 
118 1 0.752673 0.0313992 0.5 0.57571 -0.305281 0 
109 1 0.755067 0.0260894 0.5 0.808799 -0.494667 0 
16111 1 0.769971 0.0271467 0.5 0.507881 0.214626 0 
356 1 0.767953 0.0321219 0.5 1.64007 0.480255 0 
375 1 0.781679 0.0233308 0.5 1.05582 -0.237342 0 
116 1 0.790378 0.0344157 0.5 0.966403 -0.380299 0 
16366 1 0.792434 0.0271239 0.5 0.618011 -0.324895 0 
15981 1 0.793164 0.0190333 0.5 0.441698 0.330489 0 
15725 1 0.801922 0.0258967 0.5 0.857779 0.378652 0 
371 1 0.808696 0.031384 0.5 1.11885 0.320947 0 
370 1 0.814688 0.0274724 0.5 0.818509 -0.0263597 0 
15731 1 0.825435 0.0212178 0.5 1.19639 0.194849 0 
120 1 0.819217 0.036052 0.5 0.996516 -0.167023 0 
15984 1 0.827399 0.0287471 0.5 0.800964 0.256354 0 
16117 1 0.832521 0.027341 0.5 0.950823 0.452939 0 
503 1 0.838654 0.0207328 0.5 0.74378 0.887603 0 
16112 1 0.849838 0.022297 0.5 0.616197 -0.279523 0 
16376 1 0.853787 0.0325346 0.5 0.616978 -0.345236 0 
15855 1 0.861391 0.0293273 0.5 0.620116 0.192794 0 
16372 1 0.869853 0.0284868 0.5 0.882755 0.0611387 0 
119 1 0.880408 0.0203339 0.5 0.963853 0.703925 0 
15992 1 0.882893 0.0169556 0.5 0.637394 0.432596 0 
15607 1 0.889348 0.0185163 0.5 0.37419 -0.024689 0 
15357 1 0.894291 0.0228615 0.5 0.817732 -0.20704 0 
15997 1 0.903257 0.0270783 0.5 0.991756 0.0440241 0 
16250 1 0.900578 0.0308178 0.5 0.906701 0.398188 0 
15991 1 0.916961 0.0228432 0.5 0.876974 -0.259531 0 
16381 1 0.90967 0.024022 0.5 -0.0363606 0.599194 0 
16378 1 0.922545 0.0258691 0.5 1.4828 0.334372 0 
506 1 0.935063 0.0300812 0.5 0.515022 -0.134997 0 
1661 1 0.942814 0.0270173 0.5 -0.0209682 -0.389774 0 
768 1 0.950895 0.0163918 0.5 0.330636 -0.201591 0 
381 1 0.948072 0.0290156 0.5 -0.0137628 0.341218 0 
15870 1 0.953929 0.0231249 0.5 0.304406 -0.233624 0 
15742 1 0.970113 0.0298581 0.5 0.932565 0.246533 0 
382 1 0.976569 0.0234072 0.5 0.689843 -0.00209378 0 
15111 1 0.970495 0.0255215 0.5 -0.369282 -0.0565512 0 
15999 1 0.985046 0.0207232 0.5 0.761496 -0.211698 0 
1404 1 0.998353 0.0268455 0.5 0.460063 0.199129 0 
765 1 0.992449 0.0190355 0.5 0.153108 -0.127921 0 
14468 1 0.012233 0.0211725 0.5 1.03035 0.359167 0 
14594 1 0.019226 0.0304757 0.5 -0.0367109 -0.125774 0 
511 1 0.0167403 0.0342996 0.5 0.484127 -0.485939 0 
15620 1 0.0300511 0.037965 0.5 0.64102 0.0500361 0 
387 1 0.0413477 0.0353467 0.5 0.000870264 -0.216898 0 
1799 1 0.0557031 0.0289321 0.5 0.699439 -0.17841 0 
389 1 0.0612642 0.036643 0.5 0.655904 0.606321 0 
643 1 0.0696828 0.0398881 0.5 0.322258 -0.636882 0 
773 1 0.0719786 0.0325362 0.5 0.759404 0.0958082 0 
1027 1 0.0834299 0.0264702 0.5 0.496205 0.297725 0 
516 1 0.0903721 0.0346677 0.5 0.634881 0.238068 0 
1925 1 0.0893796 0.0279655 0.5 0.367374 -0.0461398 0 
15625 1 0.100577 0.0301047 0.5 0.229854 -0.141828 0 
136 1 0.111338 0.0417229 0.5 0.567312 0.431319 0 
1540 1 0.113506 0.0340426 0.5 1.25254 -0.489601 0 
263 1 0.124103 0.033264 0.5 0.0820416 0.139967 0 
1414 1 0.122381 0.0367794 0.5 0.772965 -0.302049 0 
1286 1 0.134609 0.037811 0.5 0.775275 -0.0765669 0 
15371 1 0.15197 0.0345814 0.5 0.00234407 -0.0754691 0 
14601 1 0.141053 0.0347174 0.5 0.406322 0.115186 0 
16137 1 0.148645 0.0405919 0.5 0.339386 -0.382512 0 
1034 1 0.158771 0.0379599 0.5 0.500636 0.274274 0 
391 1 0.159364 0.0274033 0.5 0.567327 -0.200074 0 
16141 1 0.167937 0.03485 0.5 0.764186 0.159146 0 
15759 1 0.170755 0.0324229 0.5 0.513381 0.0217362 0 
16266 1 0.182734 0.0297164 0.5 0.232111 0.781511 0 
15503 1 0.189261 0.039493 0.5 0.00432497 -0.150591 0 
524 1 0.189092 0.0282162 0.5 1.11656 -0.121224 0 
14 1 0.203326 0.0341216 0.5 0.745377 0.821603 0 
1290 1 0.197203 0.0325256 0.5 0.299 -0.159238 0 
271 1 0.21539 0.0281985 0.5 1.09564 0.712373 0 
525 1 0.208298 0.0322454 0.5 0.596379 0.035616 0 
17 1 0.222772 0.026328 0.5 0.58169 0.0142033 0 
15119 1 0.230817 0.0301655 0.5 0.806863 -0.274037 0 
15889 1 0.23694 0.025461 0.5 0.688907 -0.584915 0 
16014 1 0.242721 0.0267446 0.5 0.522337 0.0805573 0 
16019 1 0.256945 0.0255712 0.5 1.22621 -0.604011 0 
15761 1 0.252633 0.0329373 0.5 0.684195 0.32532 0 
15891 1 0.260307 0.0376331 0.5 0.80898 -0.221265 0 
16020 1 0.265381 0.0365923 0.5 0.563972 -0.763814 0 
408 1 0.284204 0.0282075 0.5 0.680068 0.387181 0 
15897 1 0.278271 0.0334453 0.5 0.637937 0.366964 0 
15637 1 0.286832 0.032984 0.5 0.41391 -0.115768 0 
15896 1 0.297208 0.0307459 0.5 0.141398 0.0893109 0 
23 1 0.306401 0.0294829 0.5 0.976105 0.0110526 0 
543 1 0.309534 0.0347195 0.5 0.255343 0.250744 0 
15772 1 0.32222 0.0306295 0.5 0.167447 0.240153 0 
417 1 0.32718 0.0368326 0.5 0.650931 -0.080609 0 
406 1 0.334567 0.0383768 0.5 0.130362 0.312292 0 
542 1 0.339474 0.0335611 0.5 1.17929 0.126291 0 
416 1 0.344207 0.0365301 0.5 0.101738 0.064729 0 
2465 1 0.351572 0.0412246 0.5 0.554814 -0.328933 0 
1439 1 0.367322 0.029602 0.5 0.157804 -0.528009 0 
1184 1 0.365192 0.032399 0.5 0.167779 0.154416 0 
1444 1 0.359822 0.0403999 0.5 1.30995 -0.41511 0 
1189 1 0.374798 0.0304438 0.5 0.737457 0.200156 0 
934 1 0.371851 0.0425108 0.5 0.71013 -0.160069 0 
1698 1 0.38182 0.0334179 0.5 0.446974 0.812025 0 
16039 1 0.399541 0.0311072 0.5 0.497843 0.230024 0 
1062 1 0.406803 0.0295516 0.5 0.698539 -0.489997 0 
940 1 0.419182 0.0334987 0.5 1.1312 0.210016 0 
426 1 0.430469 0.0297687 0.5 0.182086 -0.587162 0 
16292 1 0.435082 0.0292658 0.5 1.70955 0.102995 0 
303 1 0.447098 0.0307656 0.5 0.803224 0.159028 0 
306 1 0.442582 0.0328229 0.5 0.301257 0.450763 0 
49 1 0.455626 0.0291949 0.5 0.769288 0.266521 0 
180 1 0.461793 0.0227831 0.5 0.376077 0.0192968 0 
959 1 0.468472 0.0343088 0.5 0.29113 -0.298637 0 
16304 1 0.485259 0.0370347 0.5 0.479594 -0.258464 0 
695 1 0.480092 0.0404573 0.5 0.512324 0.492828 0 
694 1 0.493805 0.0328203 0.5 0.646767 0.0531099 0 
54 1 0.49528 0.0405777 0.5 0.873966 -0.324555 0 
708 1 0.503876 0.0312816 0.5 0.366108 -0.190803 0 
1089 1 0.513129 0.0351176 0.5 0.749571 -0.0507731 0 
312 1 0.510664 0.0409018 0.5 1.02834 0.321789 0 
843 1 0.525664 0.0392369 0.5 1.04633 -0.221046 0 
586 1 0.531102 0.0366474 0.5 1.09261 0.62671 0 
1098 1 0.537533 0.0399298 0.5 0.834048 0.118551 0 
449 1 0.545256 0.0337395 0.5 0.727803 0.527802 0 
850 1 0.554028 0.0402544 0.5 1.00134 -0.187126 0 
851 1 0.55801 0.0326859 0.5 0.320178 -0.110876 0 
590 1 0.563768 0.0315898 0.5 0.850999 -0.129912 0 
1241 1 0.570148 0.0301953 0.5 0.699596 -0.076789 0 
589 1 0.578671 0.042728 0.5 0.933054 -0.0128432 0 
983 1 0.581001 0.031646 0.5 1.26208 -0.564534 0 
333 1 0.585283 0.0417886 0.5 0.852255 0.568396 0 
16203 1 0.587003 0.0328241 0.5 0.688675 0.350887 0 
462 1 0.596432 0.0341018 0.5 1.13281 0.232639 0 
859 1 0.602156 0.039248 0.5 0.980591 -0.188811 0 
1107 1 0.60456 0.0328133 0.5 0.485199 0.114076 0 
724 1 0.611476 0.0415725 0.5 0.967892 -0.455105 0 
718 1 0.618556 0.0336723 0.5 0.540804 -0.457533 0 
737 1 0.620845 0.0258273 0.5 1.17133 -0.037122 0 
601 1 0.631357 0.0377339 0.5 1.2423 0.16182 0 
729 1 0.627636 0.0329849 0.5 0.817877 0.340215 0 
208 1 0.63689 0.0341306 0.5 0.451369 -0.446112 0 
866 1 0.651474 0.0360586 0.5 0.963184 0.480035 0 
731 1 0.656284 0.0341933 0.5 0.394224 0.256941 0 
1108 1 0.664657 0.0398857 0.5 1.02974 -0.290247 0 
1372 1 0.659991 0.044597 0.5 1.06846 0.280229 0 
858 1 0.67383 0.0427839 0.5 1.0985 0.336636 0 
970 1 0.680347 0.0299761 0.5 0.599321 0.407497 0 
593 1 0.680771 0.0346911 0.5 0.547049 -0.273762 0 