# vtk DataFile Version 2.0
Created with lmp2project.awk
ASCII
DATASET STRUCTURED_POINTS
DIMENSIONS 64 64 1
ORIGIN 0 0 -0.01
SPACING 1 1 0.02

POINT_DATA 4096
SCALARS vx float
LOOKUP_TABLE default
0.34535668
0.391845733333
0.2817582
0.337186
0.44178375
0.47661012
0.405278666667
0.111090333333
0.453975783333
0.346245333333
0.5806584
0.445762333333
0.7492544
0.51392586
0.971935333333
0.6955565
0.8337072
0.6520354
0.6655785
0.758961333333
0.98942275
0.3679342
0.69952025
0.78474425
0.659741
1.00717425
0.698217
0.6025564
0.6248274
0.80121925
0.9425784
0.78635475
0.2945131
1.18495
0.4877695
0.858608
0.65469775
0.933506666667
0.75562275
0.758808
0.913319
1.073964
0.6989145
0.655208
0.9017765
0.7038105
0.713602
1.1118492
0.570134766667
0.85262875
0.666998
0.88947475
0.79643525
0.9204892
0.4313287075
0.925052333333
0.318662575
0.249711693333
0.5705038
0.953208333333
0.71336
0.968219
0.74513425
0.532006
0.516789333333
0.3200924
0.2630363
0.307871266667
0.6061184
0.414638
0.4313444
0.65322
0.58709359
0.5444985
0.5218355
-0.04772075
0.736029
0.527292333333
0.5891504
0.48002617488
0.871145333333
0.6813845
0.432155
0.4500402
0.5561524
0.709315333333
0.726603775
0.424477
0.72290525
0.752862666667
0.8930244
0.705192
0.707316
0.621137666667
0.768118333333
0.520142625
1.06223266667
0.8622142
0.719939333333
1.033233
0.7970695
0.528568
0.6442435
0.790228
1.37777
0.601562616
0.46599425
0.776823333333
0.57602892
0.849242333333
0.800130666667
0.87588875
0.677737
0.547915
0.6786424
0.490753666667
1.06862325
0.6383815
0.5856915
0.974777
0.6893866
0.9043682
0.513875725
0.7352885
0.5460804
0.42217275
0.4431695
0.35979325
0.50995715
0.54202775
0.444007066
0.69321392
0.655365
0.49881205
0.405238725
0.50602432
0.628619666667
0.24935069
0.543961833333
0.27961825
0.588999194
0.5335814
0.72210525
0.4925525
0.7221304
0.69566625
0.628295
0.60226525
0.4768745
0.657555
0.3823345
0.76056975
0.623216
0.915357666667
0.872608
0.717343333333
0.565502
0.3565203125
0.713321
0.57394775
0.8307858
0.76647454
0.674611666667
0.89167425
0.6714635
0.9333032
0.8301616
0.873468666667
0.847647285714
1.06387925
0.7843298
0.969463
0.868611
0.8405693
0.72867475
0.4802766
0.4810245
0.8364798
1.127215
0.7401458
0.70021425
0.603224666667
0.6851265
0.717510666667
0.584288
0.735414333333
0.77849025
0.7106872
0.529009325
0.56594725
0.8176792
0.4167982
0.6281521
0.613154666667
0.83404175
0.9376302
0.7212645
0.87259525
0.948129666667
0.33329982
0.650089
0.718833457143
0.649853666667
0.562737666667
0.617716
0.7685955
0.9260435
0.853289333333
0.6899295
0.7709132
0.512932666667
0.6583849
0.731047
0.474846925
0.780967666667
0.6753336
0.861443
0.6346344
0.731602933333
0.580573333333
1.14492
0.55230425
0.7283784
0.560265
0.733015333333
0.5397955
0.69372055
0.8437962
0.8564385
0.909857
0.7523912
0.5568347
0.9427
0.90779675
1.128255
0.569499
1.000507
0.718811666667
0.868514333333
0.356929333333
0.634589
0.69672525
0.967013
0.935132
0.61213475
0.495356
0.5608
1.0824975
0.649341333333
0.669637666667
0.486327
0.539201833333
0.716733666667
0.530199725
0.34652384
0.751275
0.6504265
0.56583175
0.410579633333
0.6042612
0.4333965
0.04628945
0.331079666667
0.58553548
0.789652
0.464210666667
0.678885666667
0.47053045
0.50615775
0.572148
0.745674
0.33566675
0.45736842
0.803353
0.566904333333
0.7218394
0.49977725
0.443043
0.8675442
0.800545666667
0.674671
0.6720775
0.81141125
0.7151354
0.90071425
0.646713
0.7805345
1.013226
0.730238
0.8855248
0.475092766667
1.25589666667
0.8758216
0.87158375
0.69494275
0.477766333333
1.032145
0.669983
0.964548
0.795634
1.13169475
0.873509333333
0.45387012
0.8860805
0.86317925
0.85052075
0.963157
0.78490725
0.713123333333
0.610573
0.57933825
0.962826666667
0.51999955
0.78062675
0.685236333333
0.98636
0.461605
0.260582466667
0.560897
0.7869655
0.46159225
0.4278466
0.29995425
0.774940666667
0.560033
0.3234595
0.37409795
-0.053709
0.6228632
0.44566875
0.71904375
0.6119622
0.727176666667
0.2373039
0.49135825
0.529264666667
0.7248544
0.51004126
0.578134333333
0.527369333333
0.716898666667
1.104972
0.81703925
0.5795832
0.731228333333
0.8041405
0.82347
0.5881662
0.659480333333
0.9785055
0.7204815
0.475431
0.842051
0.747393
0.65445675
1.0061446
0.5842276
0.48542485
0.975942
1.0013868
0.84766375
0.62046525
0.888237333333
0.8573806
0.705243
0.558764
0.882710333333
0.966178833333
0.472891675
0.4319698
0.48659025
0.768874
0.9740535
0.68729525
0.84086775
0.585623833333
0.7551995
0.470529575
0.6556962
0.572995666667
0.4969018
0.6747712
0.455736
0.476131666667
0.749566
0.53985825
0.397640666667
0.6207398
0.8193848
0.4377677
0.466813325
0.287461666667
0.75633175
0.2324184
0.3263505
0.485852333333
0.59860496
0.6151772
0.6984588
0.1615313
0.647552
0.6451185
0.668938
0.496878166667
0.701847333333
0.61185225
0.6605005
0.8939662
0.64881925
0.7621432
1.23275675
0.462713066667
0.39174225
0.506433033333
0.8684208
0.639838875
0.5949267
0.626977666667
0.768873
0.55498775
0.773376
0.778669
0.8419696
0.675718
1.074734
0.51983125
1.1141004
0.776985
0.73002475
0.8433445
0.44895
0.177290566667
0.54130525
0.64808704
0.6297756
0.70695025
0.52237975
0.88326075
0.679348
0.8302836
1.27400266667
0.7746595
0.7083134
0.9002978
0.2085577375
0.67474944
0.622451
0.5920081
0.787213
0.7088245
0.304007
0.153810466667
0.5567558
0.5474542
0.26256935
0.42566062
0.238017
0.0974735
0.5409562
0.465584666667
0.624352333333
-0.0857876666667
0.571182
0.45790875
0.278956366667
0.348598
0.04079935
0.8977785
0.4193045
0.4512776
0.61967675
0.8846495
0.784314
0.84460775
0.702082
1.1333095
1.05733125
0.719433333333
0.84003425
0.85702425
0.6183856
0.56604675
0.940114333333
0.8275175
1.09601725
0.9807416
0.729823333333
0.4115
0.78581275
0.660247
0.534052
0.82341475
0.6406836
0.5714275
0.782577276
0.581335
0.8947455
0.513122
0.370644933333
0.770165
0.5599884375
0.5598416
0.5193052
0.6703165
0.7054772
0.42262525
0.651505333333
0.82131275
0.546676425
0.602338
0.4011535
0.49392575
0.61150744
0.542901533333
0.3905775
0.478606666667
0.6670726
0.597583
0.95004
0.357801733333
0.284323
0.67618475
0.5802795
0.598808
0.431601033333
0.603813833333
0.408472856667
0.428884025
0.4887028
0.37630106
0.6031565
0.680828
0.8613095
0.6130568
0.6202615
0.742222333333
0.8196096
0.65699625
0.6571272
0.798038333333
0.562436
0.54775675
0.977495
0.6377802
0.6872435
0.95564325
0.74019435
0.825775333333
0.72714875
0.882632
0.530991
0.6567346
0.767465666667
0.47047875
0.6679976
0.995922
0.373130666667
0.68112275
0.83076475
0.7444445
0.6671035
0.56685764
0.5021619
0.6518838
0.289932533333
0.61362225
0.851721
0.738659725
0.5539566
0.664166
0.548762666667
0.462841333333
0.493708
0.681057
0.363693825
0.61535275
0.4479315
0.387236666667
0.66293275
0.463445
0.098845
0.463390515
0.34527116
0.34437925
0.3893325
0.4806915
0.3403527375
0.234390333333
0.8252518
0.54424525
0.508091966667
0.402321666667
0.521897206667
0.5913535
0.652212
0.09170925
0.5530572
0.940399
0.748677
0.393439666667
0.3948599
0.757419
0.956414333333
0.48618845
0.544640333333
0.598243333333
0.787383666667
0.715296534
0.5635882
0.8219236
0.70126675
0.305132
0.349113225
0.57426775
0.723201
0.458738666667
0.4559105
0.16928625
0.8452666
1.39347
0.65689329
0.652171
0.79839425
0.50928194
0.787692666667
0.798771
0.6315184
0.430174333333
0.386915126
0.57384035
0.77137125
0.641996
0.66535875
0.471539133333
0.765486666667
0.69280225
0.6273904
0.717531
0.5771945
0.1319694
0.1781021
0.555903
0.7303685
0.59520025
0.699370475
0.03794304
0.5120988
0.590913575
0.3145065
0.18794725
0.358914333333
0.5126635
0.183767333333
0.5031865
0.612659666667
0.3853189
0.26393876
0.55265444
0.4602793
0.606117
0.865202
0.39540815
0.606761166667
0.590734
0.63339525
0.65781525
0.318851333333
1.0047135
0.5146152
0.5685195
0.412328
0.50606
0.6311758
0.545398766667
0.127257666667
0.66192725
0.6900766
0.6410166
0.581071666667
0.6891706
0.4209805
0.38165805
0.7288095
0.6550665
0.602568333333
0.6484988
0.39313675
0.657970666667
0.8762498
0.61659356
0.743159333333
0.696745
0.1487405
0.518434075
0.324121325
0.65934
0.42808185
0.6145135
0.7736295
0.4166703
0.1116504
0.373841
0.213619575
0.6216
0.13568024
0.6062505
0.56613075
0.356717325
0.462495
0.30874975
0.17324925
0.409363166667
0.303041333333
0.44324125
0.501005364
0.821448076667
0.582491666667
0.484669666667
0.48384925
0.404469
0.5624842
0.4554975
0.4355424
0.143365333333
0.341409
0.68312
0.50332475
0.4815195
0.5438235
0.744616
0.74811175
0.39648375
0.3594116
0.8713612
0.416235666667
0.65601375
0.315103
0.586441925
0.70509575
0.42090505
0.819167
-0.0375446
0.391688225
0.8367882
0.316098
0.170122766667
0.25310325
0.62248905
0.2081308
0.431628233333
0.676854666667
0.7748178
0.360699666667
0.542821425
0.374009425
0.4296364
0.770262333333
0.159003666667
0.6577582
0.64716075
0.342159525
0.52736675
0.4902124
0.59721575
0.5571295
0.53457475
0.2501948
0.297283925
0.35343
0.593661
0.47929484
0.0725389066667
0.6280602
0.461067825
0.52554732
0.397801333333
0.20536485
0.5643666
0.317562214
0.341843
0.0948415
0.52767635
0.64006862
0.36507105
0.55032025
0.0860166
0.370524175
0.8281465
0.5198722
0.608651
0.3603096
0.808050333333
0.513642
0.830538333333
0.656151
0.219754025
0.60988775
0.208569
0.3321116
0.57532525
0.29430475
0.1689923
0.40154025
0.115749333333
0.48996644
0.29735214
0.335063
0.197514833333
0.4424136
0.516290575
0.5603399
0.501434
0.374763
0.47694575
0.36913256
0.490019233333
0.40523818
0.37086714
0.2522308
0.3484907
0.599318
0.383294925
0.46226445
0.2457551
0.77778975
0.645517666667
0.62077525
0.491284
0.5448342
0.360296333333
0.627734333333
0.2761962
0.36708425
0.667428
0.4231235
0.2039252
0.35752938
0.1192343
0.83104225
0.22776052
0.1137717
0.366969666667
0.443243375
0.6891194
0.388187
0.5140855
0.3130685
0.45855725
0.282361733333
0.329844
0.3805986
0.3135135
0.476618
0.5111578
0.09567225
0.710249
0.589063333333
0.198828
0.383456925
0.335036
0.21145354
0.59204975
0.769176
0.381686666667
0.6227315
0.461993
0.45970488
0.202942
0.183129666667
0.498445
0.45954025
0.4917275
0.2699373
0.5852915
0.360206
0.359084
0.4441755
0.33561656
0.414595666667
0.207694
0.2290346
0.594918
0.478400466667
0.435945
0.497451
0.6503418
0.15384068
0.42694375
0.3068156
0.9004015
0.498482983333
0.263827
0.54282524
0.1039642
0.5270672
0.27681995
0.27590574
0.213478625
0.27147325
0.3932931
0.480225666667
0.5649912
0.369191333333
0.4934652672
0.70860625
0.68074125
0.2795698
0.268637
0.527086
0.190510075
0.59291475
0.371358
0.3921065
0.269290325
0.5212358
0.349830875
0.574199
0.14094295
0.62922375
0.3736876
0.358415
0.294683075
0.40364775
0.482215333333
0.34394875
0.292099825
0.145231275
0.527029
0.020390275
0.212424
0.091382585
0.317627966667
0.26121688
0.362070333333
0.339265325
0.35438505
0.67890775
0.153065955
0.19871675
0.361425
0.46970075
0.3868356
0.32208172
0.355303625
0.2258364
0.531570666667
0.16673394
0.3344455
0.55076875
0.70494725
0.326088333333
0.67159225
0.049589325
0.295484466667
0.0541996
0.4293945
0.389179666667
0.597653
0.43330525
0.50919
0.26062014
0.3912296
0.721917
0.250567425
0.31142084
0.142725333333
0.224067233333
0.3077875
-0.0333841
0.449242
0.23680775
0.50168384
0.4126435
0.407350333333
0.1629195
-0.0020301
0.61015125
0.3883006
0.20715575
0.3946436
0.506851075
0.4023992
0.4482045
0.6810475
0.282863842857
-0.2118453
0.27756378
0.205586566667
0.181833925
0.14310282
-0.05025925
0.0981075
-0.136987
-0.0445633
-0.069609
0.3205315
0.23473822
0.253423566667
-0.179298225
0.142444575
-0.01858612
0.2129817
0.0683056666667
0.209532133333
0.232845875
0.304015575
0.357433525
0.31409598
0.599058666667
0.372058
0.222358333333
0.30482662
0.489062275
0.18260455
0.14151424
0.1413911
0.264037666667
-0.156385234
0.3486955
0.114121666667
-0.00478466666667
-0.3711965
0.09445025
0.322028766667
0.42842455
0.06938225
0.13424725
0.0824615
0.231762
-0.0697820575
0.43546898
0.473331
0.170274175
0.314097292
0.401448
-0.25349425
0.32827564
0.5579065
0.107476
0.599493
0.0857059333333
0.328097
0.56615048925
0.126558333333
0.44147
0.081875
0.1188016
0.286390825
-0.1302115
0.041811725
-0.395054
-0.0202681
0.005498
0
-0.479329
0
0.150018
0
-0.0803542
0.1296015
-0.122313966667
0.29188925
0.203888733333
-0.00445603333333
-0.12467566
0.1134444
0.19839425
0.2710284
0.645408666667
0.077267
0.17356075
-0.0926545
0.56214625
0.417078
0.37467995
0.097455475
0.210833225
0.4424161
0.1340598
-0.05478875
0.230569
0.4435472
0.3541118
0.106145666667
0.5539954
0.49404824
0.33640775
0.43256375
0.2399779
0.26633825
0.33435326
0.1552935
0.157815
-0.010007004
0.477605666667
0.39132225
0.0813931666667
0.4324879
0.2597908
0.29563875
0.1589209
0.849677
0.17492975
0.368681075
0.30504364
0.529834944
0.31194952
0.31551944
0.2043115
0.3400955625
0.15298975
0.299805
0.0961183333333
-0.397862
0
0
0
0
0
0
0
0
0
0
0
0
-0.0616841333333
-0.154818
-0.1502255
0.130062666667
0.417371
0.2940042
0.05932525
0.03551416
0.14577422
-0.19367
-0.11884804
0.288277024
0.15458175
0.28322
-0.0185606
0.204117133333
0.3002983
0.0622633666667
0.0994886666667
0.613491333333
0.36069494
0.1696595
0.2800585
0.217026
0.08069925
0.459984775
0.230522666667
0.516797
0.150516333333
0.56316602
0.2154775
0.43814475
0.17363581
0.2720525
0.18426652
0.408013
0.207886125
0.1860066
0.3453485
0.16978312
0.099150775
0.24325145
0.1189839
0.620706666667
0.395793533333
0.271471
0.13447748
-0.216316625
-0.13489165
-0.0567788
0
0
0
0
0
0
0
0
0
0
0
0
0
0
0
0
0.0535467
0.0402846
0.2061966
0.1110998
0.0641391333333
0.203564
0.1265085
0.22048975
-0.151056
0.311713033333
0.19566974
0.023392
0.3761615
0.47867775
0.232092925
0.382240333333
0.0052708
0.484776333333
0.2399435
0.375681765
0.27391225
0.43439175
0.15250425
0.397418
0.2987356
0.243185863333
0.01219112
0.26149355
0.0550209
0.248463666667
0.0980771666667
0.13437
0.24664925
0.525313
0.29230358
0.41351275
0.2365611
-0.175224866667
0.14069325
0.173369625
-0.0766241333333
0.0486606
0.29371875
0.273353
0.241965033333
0.18480258
0.938207
0
0
0
0
0
0
0
0
0
0
0
0
0
0
0
0
0
0
-0.127609
-0.02034
-0.1469905
0.301287
0.30450072
0.0992388766667
0.0725693333333
0.187126333333
-0.0402164285714
0.06395255
-0.0567068
-0.04537675
0.039392175
0.01130186
0.020570525
0.19545775
0.29852354
0.001358825
0.201512
0.368152375
0.41679844
0.298653333333
0.36001425
0.26510166
0.14271375
0.213362666667
0.0877032666667
0.046797
0.0767969
0.0926933333333
0.2909788
0.270841666667
0.1745952
0.28360174
0.218213125
0.36457125
0.10749825
-0.11049758
0.08173946
0.24389225
-0.032019
0.24995725
-0.260914056667
0.199692
0
0
0
0
0
0
0
0
0
0
0
0
0
0
0
0
0
0
0
0
0
0
0.1520755
0.2737751
-0.07266525
0.134037666667
0.226112766667
0.312276666667
-0.0166217433333
0.246168975
0.142410666667
0.124760325
0.209638516667
0.203329966667
0.23467325
0.469502
-0.125032666667
0.2240537
0.406436
0.498134186
0.067975355
0.219042533333
0.0164138666667
0.137542733333
0.541795
0.083801
0.28079975
0.493671
0.12086242
0.071431675
0.29916305
0.35097875
0.112989875
0.160463666667
0.439664925
0.14262608
0.150078475
0.08392475
0.0933674
0.176660225
0.21700475
0.0217525
0.192117475
0
0
0
0
0
0
0
0
0
0
0
0
0
0
0
0
0
0
0
0
0
0
0
0
-0.2543998
0.0098792
0.3581478
-0.135242833333
-0.18949725
-0.2775764
0.334863533333
0.18878914
-0.16487605
-0.236530666667
-0.03242195
0.0970966
0.6021032
-0.0678022333333
0.39135852
-0.2929075
0.025333125
0.2466916
0.41728825
0.04652534
0.071737475
0.141369
0.4143595
0.4418909
0.479143
0.34408372
0.332254
0.26485664
-0.045924075
0.06644925
0.3953487
-0.0122188
0.286933325
0.505313025
0.2782493
-0.030856
-0.1529
0.386112
-0.417355333333
-0.130809
0
0
0
0
0
0
0
0
0
0
0
0
0
0
0
0
0
0
0
0
0
0
0
0
1.09771
-0.567537
0.00013085
0.29606505
0.17881195
0.0198177
0.2113694
-0.327557
0.1372895
0.00182953
0.011494255
0.40753
0.11239545
0.0818163066667
0.3230815
0.08801415
-0.147615333333
0.107449666667
0.33413734
0.3689424
0.1740912
0.27004525
0.222557875
0.003210225
0.0653239
0.189979533333
0.1572184
0.233458475
0.147369875
0.297034
0.1067962
-0.104849333333
0.109673
0.09527
0.3488485
-0.2409242
0.283991
0.05515004
-0.061583
0
0
0
0
0
0
0
0
0
0
0
0
0
0
0
0
0
0
0
0
0
0
0
0
0
0
0.115592
0.01725175
0.302467333333
-0.014908075
-0.0224104
0.263983433333
-0.0615336
0.24339775
-0.0685097666667
0.0383599025
0.3400286
0.0365097
0.1924089
0.02083875
0.19833955
-0.0245322
0.234947
-0.0152536
0.258992
0.080288575
0.595425
0.0702198
-0.04090945
-0.102033666667
-0.13705895
0.14867915
0.00497373333333
-0.0673646666667
0.526638
0.54598545
0.17605504
0.459978
-0.00851178
-0.0120316
-0.39627466
-0.01346196
0.255637
0
0
0
0
0
0
0
0
0
0
0
0
0
0
0
0
0
0
0
0
0
0
0
0
0
0
0
0
0.32047225
-0.194155996
-0.0615139666667
-0.146128833333
0.213497526
0.187887333333
-0.100494125
0.323502533333
-0.2210872
0.323319
0.27316675
-0.0208828
0.05220725
-0.0133731
-0.23771065
0.06043882
-0.019158125
-0.0528973
0.02556542
0.55756575
0.3151693375
0.1434999
0.4561339425
0.225704033333
0.014617
0.05338048
0.31562754
0.033219025
0.0622041666667
0.13974690825
0.227065925
0.207314025
-0.20887075
-0.052644275
0.053078075
-0.30618308
0
0
0
0
0
0
0
0
0
0
0
0
0
0
0
0
0
0
0
0
0
0
0
0
0
0
0
0
0
0.00852052
-0.0853806666667
-0.232997333333
-0.19523726
0.02677625
-0.1298254
-0.0308248
-0.21944635
0.4068475
0.19180874
-0.118642325
-0.1292087
0.0146385
0.315911
0.1288069
0.541304333333
0.7336435
0.061897975
-0.146549875
0.248977375
-0.079930975
-0.00507933333333
0.275999075
-0.042577895
-0.07499555
0.0490352
0.10382412
0.11697418
0.3087565
0.20341425
0.109702275
-0.12304255475
-0.2448695
-0.0887438666667
0
0
0
0
0
0
0
0
0
0
0
0
0
0
0
0
0
0
0
0
0
0
0
0
0
0
0
0
0
0
0.149478
0.0835301666667
0.31030907
-0.060136
0.265914666667
0.08835416
-0.20363071
0.26881706
-0.168202825
0.24871
0.2098018
0.1921258275
0.165433575
0.18660935
0.113333216667
0.246342325
0.182142925
-0.04779225
0.375155
0.2211264
-0.00700133333333
-0.146197072
0.04915135
-0.0841375
0.513522625
0.02905126
0.225293866667
-0.28259975
-0.140953892
-0.01313708
0.0242662666667
0.2149342
0.185505675
-0.138289666667
0
0
0
0
0
0
0
0
0
0
0
0
0
0
0
0
0
0
0
0
0
0
0
0
0
0
0
0
0
0
-0.18451255
-0.295433133333
0.022663625
-0.02606475
0.19903335
-0.0476966666667
-0.1811005
0.073985575
0.156679075
-0.11192535
0.102581175
0.02553648
0.0372354666667
0.0297803
0.07443106
0.1397666
0.40560495
0.32741065
0.24230525
-0.1495285
-0.1464928
0.0116135
0.02672975
-0.092624
0.34575275
-0.0499565
-0.012992625
0.11186762
0.0130607
-0.06356
0.213673566667
-0.091753
0.223466866667
-0.0330148
0
0
0
0
0
0
0
0
0
0
0
0
0
0
0
0
0
0
0
0
0
0
0
0
0
0
0
0
0
-0.0760044
-0.1327286
-0.12142175
-0.2450566
0.028953225
-0.227434
-0.40536925
0.2502196
0.0686215
0.3541708
-0.186519525
0.0366755
-0.0409656666667
-0.293181
-0.264887125
0.028577
0.08747435
-0.128800966667
-0.0177515
0.288899
0.14678945
0.13082512
0.1064447
0.168007
0.30701826
-0.222739233333
0.247678
0.0194826666667
0.272711375
0.1159206
0.072479
0.11486848
0.100021333333
-0.3903453
-0.048722
0
0
0
0
0
0
0
0
0
0
0
0
0
0
0
0
0
0
0
0
0
0
0
0
0
0
0
0
0
0
-0.79928
0.1218842
-0.16547488
-0.09124185
0.3919010425
0.173713866667
0.23270725
0.03782275
-0.117959333333
0.12726532
0.148997666667
0.0684326
-0.00521362
0.080984875
0.0285682866667
0.410552175
0.323138233333
0.006536925
0.086812
0.498156333333
0.2122788
-0.23636575
0.13158025
0.119144525
0.2031675
0.16439225
0.468226333333
-0.062061684
0.0883536
0.0458629
0.142339033333
-0.02759275
-0.295209416667
0
0
0
0
0
0
0
0
0
0
0
0
0
0
0
0
0
0
0
0
0
0
0
0
0
0
0
0
0
0
0
0
0.177940775
0.0949098
-0.122174175
0.383781166667
-0.216222666667
0.24830205
0.119495675
0.0713313
0.096101025
0.243329
-0.10641916
0.002057
0.039074
-0.036700375
-0.0036525
0.12742829
0.457658
-0.1325985
-0.07460025
0.14797512
0.302267
0.2032086
0.11314565
0.2950102
-0.290395675
0.228465
-0.0993257666667
0.04947
-0.2450435
-0.0990981333333
-0.444015
-0.04444825
0
0
0
0
0
0
0
0
0
0
0
0
0
0
0
0
0
0
0
0
0
0
0
0
0
0
0
0
0
0
0
0
0.0492643733333
0.00340854
0.151954775
0.120061968333
0.0319551
-0.096194418
-0.042266475
-0.2982544
0.0402601
0.2137062
-0.2497115925
0.3643285
0.3853648
0.043526575
-0.03376712
0.1689966
-0.14056355
-0.369035666667
-0.04862
-0.101620733333
-0.121309666667
-0.024329475
0.282874333333
-0.13914586
-0.065255
0.03358194
0.041044525
0.1170597
-0.001987
-0.117400525
0.0796944
-0.281087366667
0.592003
0
0
0
0
0
0
0
0
0
0
0
0
0
0
0
0
0
0
0
0
0
0
0
0
0
0
0
0
0
0
0.400864
-0.1140868
-0.101337866667
-0.188103425
0.21780425
0.005420975
-0.05771765
-0.101105066667
0.059382
-0.0553025
0.046303
-0.04241075
0.131048725
-0.16730962
0.18316526
0.196866
0.122116575
0.38724088
0.0027136
0.0199755
0.441164333333
-0.0526266428571
0.287947
0.118347866667
-0.051052825
0.340082333333
0.02308725
0.235520925
-0.28983
-0.0052689
0.07610125
0.0535642125
-0.2385166
0.343576
0
0
0
0
0
0
0
0
0
0
0
0
0
0
0
0
0
0
0
0
0
0
0
0
0
0
0
0
0
0
0
0.06197925
0.030200725
0.1030826
-0.21324125
0.190245333333
-0.1188542
-0.355672575
0.303420025
-0.102996875
0.07423985
-0.11019082
0.014786
-0.0658209666667
-0.170972666667
0.0227189833333
0.105331
-0.00040985
0.00318031375
-0.061326775
0.12427625
-0.111622
-0.0241602
-0.04406392
-0.157409225
0.0685363
0.299768333333
0.0561185
0.21705032
0.0853814
-0.0110798
-0.041697
-0.188729
-0.133824
0
0
0
0
0
0
0
0
0
0
0
0
0
0
0
0
0
0
0
0
0
0
0
0
0
0
0
0
0
0
-0.554263
-0.0559699
0.247230333333
0.08550675
-0.448297133333
0.0468602
0.13328425
0.058004075
-0.0769468
0.315534
0.0023639575
0.0592559
-0.0391726
0.1757635
0.00814918333333
-0.0140782333333
0.0234073166667
-0.1753003
0.388591
0.0811945725
0.38667275
0.1491599
0.25971716
0.066005
-0.045203025
0.00581875
0.415149
-0.01119454
-0.228238225
-0.306714
0.11159375
0.02868714
0.07105164
-0.046578
0
0
0
0
0
0
0
0
0
0
0
0
0
0
0
0
0
0
0
0
0
0
0
0
0
0
0
0
0
0
0.0656915
-0.020316325
0.02327575
-0.1403822
-0.0170886
-0.18894895
0.00164975
0.2053705
0.323731
0.16448966
0.000317018
-0.195077566667
0.10925966
0.15511775
-0.27226485
-0.2357635
0.464197
-0.0443175
0.453776
0.455473
0.267101575
-0.0292584233333
0.238347625
0.001106362
-0.0770120333333
-0.127349175
-0.2174675
0.114972
0.210841666667
0.231297766667
-0.026863
-0.131865916667
0.355342
0.135352925
0
0
0
0
0
0
0
0
0
0
0
0
0
0
0
0
0
0
0
0
0
0
0
0
0
0
0
0
0
0
0.0509169
-0.075342882
0.492763
0.0503212
0.07102225
-0.01517446
-0.0607546
0.042534908
-0.1950541
0.101883
-0.061530845
-0.09296675
0.36921675
-0.08271975
0.15369525
0.1387816
0.3352472
0.20061975
0.100278
0.128655925
0.297243625
0.319031333333
-0.00293804
0.381654666667
0.16470165
0.284571611667
0.1409346
-0.15904275
0.1230072525
0.0065696
0.0434988333333
0.1863713
-0.34024475
0.3388499
0
0
0
0
0
0
0
0
0
0
0
0
0
0
0
0
0
0
0
0
0
0
0
0
0
0
0
0
0
0
0.0320200333333
0.112646
0
0
0.139289
0.0934643333333
-0.09476481
-0.1871126
0.09936082
-0.0829524
0.10434225
-0.020284875
0.0113082
-0.00439254
-0.03613658
-0.1375178
-0.208914625
0.630779333333
-0.21507035
-0.06916216
0.301763
0.08138904
-0.0376404
-0.088742375
0.1793532
0.1040184
0.166062575
0.37582005
0.0543682
0.000942133333333
-0.001499
0.0187073333333
0.336556925
-0.28328226
0.329077
0
0
0
0
0
0
0
0
0
0
0
0
0
0
0
0
0
0
0
0
0
0
0
0
0
0
0
0
-0.076831
-0.136881666667
0
0
0
0
0.2210504
0.0773604
0.00855525
0.0759255
-0.05849866
0.1461025
0.312408
0.118584556667
0.0201126
0.624756333333
-0.196429
0.453868666667
0.3584375
0.13603332
0.2417154
0.303525333333
0.09642875
0.226711925
0.4785617
0.13904645
0.322827766667
-0.01395616
0.399199
0.14057012
-0.0255794525
0.18810825
-0.252511
0.22384125
0.1174681
-0.048578225
0
0
0
0
0
0
0
0
0
0
0
0
0
0
0
0
0
0
0
0
0
0
0
0
0
0
0
0
-0.3359085
-0.830545
0
0
0
0
-0.0064435
-0.0897934333333
-0.0182447666667
0.107291175
-0.0783842
0.2678053
0.11819905
-0.00311
-0.1004348
0.2329721625
0.19774235
0.04352494
0.238286733333
-0.068989984
0.0683325
0.1798591
0.047587725
-0.144804005
0.119931
-0.14355325
0.207355
0.111587
-0.0028175
0.246691824333
0.348529566667
0.140084975
-0.0271632
0.305821475
-0.200359125
-0.100519833333
-0.294334
0
0
0
0
0
0
0
0
0
0
0
0
0
0
0
0
0
0
0
0
0
0
0
0
0
0
-0.0935335
0.041923875
-0.2721625
0
0
0
0
-0.1567236
0.452709
0.3142194
-0.222175333333
0.219189333333
0.400342375
0.10651025
0.3367808
0.170667
0.039550225
0.264033666667
0.05571198
0.14407375
-0.03114718
0.1063185
0.0498918
-0.25895625
0.217642625
0.16058114
-0.1313706
0.129442725
-0.02246588
0.310003465
0.2611725
0.341386325
0.10467818
0.0961345666667
0.50433975
0.11525475
0.256445
0.08828526
-0.191589
0
0
0
0
0
0
0
0
0
0
0
0
0
0
0
0
0
0
0
0
0
0
0
0
0.3434025
0.270606
-0.1088058
-0.325799036
0
0
0
-0.0654675
0.43843875
-0.1057938
-0.09250025
0.3153535
0.1519752
0.267836625
0.3295199
0.026065
0.47494004
-0.041857975
0.056627
-0.0133795675
0.068297725
0.37331925
-0.017339
0.353522666667
0.33380014
0.095947
0.00583899
0.1529906
0.17546658
0.13881155
0.407580333333
0.364519
0.0019392
-0.187714666667
0.23443125
-0.1512092
-0.07753165
0.2291065325
0.23004942
-0.00171
0
0
0
0
0
0
0
0
0
0
0
0
0
0
0
0
0
0
0
0
0
0
0
0
0.05890425
0.02883976
0.2551425
0.258224133333
0.15391345
0.16657
0.425937
0.1477242
-0.11454775
-0.04850592
-0.379850666667
0.424872433333
0.267534825
0.00436525
-0.0254277333333
-0.0637819333333
0.24991325
0.2712297
0.068026975
0.156092
0.198427666667
0.289557
0.2778904
-0.039716325
0.237087882
0.2759802
0.0873449
0.587643
0.068709225
0.3288369
0.68698975
0.248539333333
0.1954782
0.11888691
-0.124254425
0.23370105
-0.0396033333333
0.11621025
-0.141451933333
0.07802258
-0.125442666667
0
0
0
0
0
0
0
0
0
0
0
0
0
0
0
0
0
0
0
0
0
0
0.14298585
0.123243033333
0.312637566667
0.614880666667
-0.1636321
-0.36428
0
0
0.00284242
0.20440912
-0.3242795
0.2656509
0.17627172
0.03986105
0.01630713
0.0632471
0.10651082
0.312423
0.00285166666667
-0.1729474
-0.132337933333
0.20675105
0.196721525
0.1184208
-0.000625556666667
-0.1571412175
-0.11417636
-0.0442074466667
0.1565706
0.2586335
0.16891475
0.1979784
-0.15430208
0.15210066
0.351082716667
-0.0546307666667
0.0792776666667
0.213514608
0.20527175
0.330545725
0.251431635
0.177982
0.179840566667
-0.26590775
0
0
0
0
0
0
0
0
0
0
0
0
0
0
0
0
0
0
0
-0.1416911
0.08582395
0.1288775
0.001181425
-0.1012288
0.1102330975
0.19007426
0
0.32508735
-0.207807366667
-0.0273342
0.1622382
0.09015884
0.50925325
0.0428735
0.086897525
0.0646613333333
0.337588
0.43788175
-0.18048756
0.155285
-0.06828162
0.0596242
0.1409
-0.2380347
0.2696489
0.464484666667
0.2997515
0.17581186
0.2227826
0.2610843
0.1850896
0.1063425
0.1771887
0.21011725
0.101458
0.1801555
0.1800467
0.3121275
0.0763391
-0.108814596667
0.0989787833333
0.333786166667
0.172833456
0.059280875
0.476674
0.34496
0
0
0
0
0
0
0
0
0
0
0
0
0
0
0
-0.164849
0.0957063333333
-0.19447525
0.11663175
0.015552525
0.0794482
0.116983
0.41885384
0.20395425
0
0.415551
0.30561285
-0.0811455
0.002351
-0.076543
0.0166329333333
0.026169
0.0296693
0.25011553
0.03371
0.666969
0.28878182
0.4111265
0.3565095
0.1586825
0.3386966
0.087604
0.20299045
0.389679671429
0.192778033333
0.32868
0.28322975
0.494026075
0.3500863075
0.17178025
0.077907675
0.3678662
0.443058333333
0.06977675
0.0588326
0.12159301
0.229996175
-0.0503970666667
-0.118801
0.12514355
0.3573804
0.3986470925
0.052353
0.197322
0.29096195
0
0
0
0
0
0
0
0
0
0
0
0
0.531664
-0.1861868
-0.00157962666667
-0.041245505
0.0801112
-0.10195495
-0.101691666667
0.1935835
0.196083
0.10657835
-0.0260209
0
0.374374
0.53522525
0.2401197
0.10391646
0.2415521
0.126985
0.254598325
-0.1698686
0.578294
0.53454426
0.0183611
-0.009969
0.14175775
-0.0442208333333
0.1783678
-0.18313175
0.172893
0.221760733333
-0.04478065
0.241838253333
0.178696
0.309739583333
0.350256333333
0.54291825
0.39101702
-0.0423255
0.32172
0.241687
0.614430666667
0.224824066667
0.24707975
0.187312666667
0.0852225
0.483771666667
0.20503608
0.156482466667
0.33467325
0.248837
0.2737322
0.3098004
-0.08109725
-0.1276926
0.0317315
0
0
0
0
0
0
-0.0301996666667
0.253257666667
-0.0475420666667
0.30324625
0.222376675
0.144781625
0.025876625
0.0040727
0.30120587675
0.11284475
0.3278128
0.311672175
0.1315682
0
0
0
-0.07066766
0.2379303
0.4789065
0.221194866667
0.3701908
0.0338151
0.0758713025
0.4351635
0.13418575
0.244715333333
0.162129
0.19083634
-0.0586410025
0.2484274
0.26621984
-0.2890675
0.2401784
0.591908
0.360712328571
0.22023305
-0.1551769
-0.0271233333333
0.360159333333
0.533771
0.0989871333333
0.164001766667
0.4808324
0.3485681
0.33977934
0.5222565
0.201792425
0.4779953
0.5553624
0.191229
0.4928288
0.25042872
0.212824875
0.4485026
0.223852333333
0.330382
0.21470266
0.280496233333
0.1458827
0.20631065
-0.047825675
-0.3657365
0.172104425
0.2556608
0.143545
0.133450375
0.2225362
0.18730118
0.279433333333
0.25799896
-0.0682523333333
0.6523184
0.42657664
0.016846225
0.40065765
0.3079906
0.211563
0
0
0
0
0.3756802
-0.128996765
0.240195333333
0.0383248
0.581025666667
0.2425294
0.0580503666667
0.0530957333333
0.429121
0.3689482
0.0880625
0.34761075
0.1921219
0.0203083333333
-0.03950905
0.31482
0.3574468275
0.30095998
0.527050175
0.33482724
0.12341065
0.29733375
0.155091
0.613882
0.471295
0.5274692
0.508626
0.08041705
0.266966
0.50067725
0.4564955
0.3898655
0.176387375
0.28545651
0.191054333333
0.3856784
0.570197
0.272104666667
0.438788
0.53931325
0.14403924
0.106839
0.0161944475
0.2967785
0.171848825
0.36297885
0.325758566667
0.0173243333333
0.475211
0.18324306
0.28473055
0.1329486
0.32229802
0.3204385
0.223481525
0.16654325
0.1338765925
0.3731762
0.224922
0
0
0
0
-0.29569
0.294993275
-0.163501
0.117722825
-0.0791912675
-0.295411
0.2470636
0.351473
0.123529875
0.2498172
0.33595788
-0.27179866
0.283622333333
0.51196775
0.479215
0.19448635
0.280179925
0.2010191
0.51458815
0.651235666667
0.32174345
0.147045433333
0.176463925
0.59263125
0.388879966667
0.177705666667
0.350446333333
0.6419694
0.4552886
0.269013
0.352871333333
0.41240545
0.6268284
0.5144645
0.44189775
0.082598
0.38845986
0.18208575
0.5950834
0.2945565
0.123560333333
0.415442
0.56053275
0.4217675
0.2348275
0.29596322
0.276424675
0.516428333333
0.327447
0.22837763
0.1942968
0.4498568
0.45709875
0.39983255
0.4703325
-0.0932108666667
0.57543575
-0.11728225
-0.1596519125
0.3621295
0
0
0
0
0.383275
-0.0539845333333
0.42184125
0.1950052
0.260561
0.0935627285714
0.346612666667
0.300082
0.413577
0.18813225
0.1329585
0.510441
0.236102625
0.456282333333
0.301201
0.159864333333
-0.0421479333333
0.156129666667
0.633146333333
0.3103994122
0.3026025
0.09712025