LAMMPS data file via write_data, version 30 Sep 2016, timestep = 10000

5760 atoms
4 atom types

0.0000000000000000e+00 2.4000000000000000e+01 xlo xhi
0.0000000000000000e+00 2.4000000000000000e+01 ylo yhi
-1.0000000000000000e-02 1.0000000000000000e-02 zlo zhi
0.0000000000000000e+00 0.0000000000000000e+00 0.0000000000000000e+00 xy xz yz

Masses

1 1
2 1
3 1
4 1

Atoms # atomic

1369 1 5.3929561321279157e-02 1.1369636638701245e+01 0.0000000000000000e+00 0 0 0
1426 1 6.0412052529233318e+00 1.1651543422986935e+01 0.0000000000000000e+00 0 0 0
1425 1 5.7893794322020105e+00 1.1819130599068698e+01 0.0000000000000000e+00 0 0 0
4 1 9.4577236131446574e-01 6.9560710484017949e-02 0.0000000000000000e+00 0 0 0
4105 1 1.1952238094150882e+01 9.9479754607663704e+00 0.0000000000000000e+00 0 0 0
34 1 1.0478138528594600e+01 3.2864497952061450e-02 0.0000000000000000e+00 0 0 0
989 1 1.0140423879474195e-01 8.1874184540270551e+00 0.0000000000000000e+00 0 0 0
1424 1 5.4885964742746776e+00 1.1780345356461730e+01 0.0000000000000000e+00 0 0 0
1423 1 5.1722579343529009e+00 1.1649782910724660e+01 0.0000000000000000e+00 0 0 0
16 1 4.5058265746296584e+00 6.1407848120725902e-02 0.0000000000000000e+00 0 0 0
1422 1 4.7869160190892250e+00 1.1633931620702146e+01 0.0000000000000000e+00 0 0 0
1421 1 4.5315019169830322e+00 1.1700094636773173e+01 0.0000000000000000e+00 0 0 0
3269 1 1.1984145827580289e+01 3.3088256774193394e+00 0.0000000000000000e+00 0 0 0
1420 1 4.0515884416741672e+00 1.1684998026972028e+01 0.0000000000000000e+00 0 0 0
1419 1 3.8634618096760489e+00 1.1770643093205933e+01 0.0000000000000000e+00 0 0 0
1418 1 3.4694153995696637e+00 1.1504352473137326e+01 0.0000000000000000e+00 0 0 0
1417 1 3.0648419897749419e+00 1.1756663316145314e+01 0.0000000000000000e+00 0 0 0
1405 1 1.1459617408359982e+01 1.1537728950536454e+01 0.0000000000000000e+00 0 0 0
1458 1 4.0226846390780269e+00 1.1913197686422357e+01 0.0000000000000000e+00 0 0 0
3801 1 1.1842749714843343e+01 7.6981236922593972e+00 0.0000000000000000e+00 0 0 0
21 1 6.4675029629612188e+00 1.4991074152588008e-01 0.0000000000000000e+00 0 0 0
25 1 7.7850084595321380e+00 6.3855485014972346e-02 0.0000000000000000e+00 0 0 0
1416 1 2.8379302673908073e+00 1.1602140340467951e+01 0.0000000000000000e+00 0 0 0
1415 1 2.5833459762945132e+00 1.1682625535908668e+01 0.0000000000000000e+00 0 0 0
1414 1 2.2343704700393934e+00 1.1762039932250252e+01 0.0000000000000000e+00 0 0 0
3839 1 1.1978845292851064e+01 8.0287781437182257e+00 0.0000000000000000e+00 0 0 0
1413 1 1.8775092649723664e+00 1.1633867850608503e+01 0.0000000000000000e+00 0 0 0
1412 1 1.5641294966605936e+00 1.1771979313648128e+01 0.0000000000000000e+00 0 0 0
10 1 2.8795466040115150e+00 2.1952646041337329e-02 0.0000000000000000e+00 0 0 0
1411 1 1.2980661206295401e+00 1.1812508429392523e+01 0.0000000000000000e+00 0 0 0
723 1 5.3421825366705616e-02 6.0957315464829041e+00 0.0000000000000000e+00 0 0 0
15 1 4.2866751016435725e+00 2.1516544708942079e-01 0.0000000000000000e+00 0 0 0
1410 1 1.0077204882297217e+00 1.1770724323013230e+01 0.0000000000000000e+00 0 0 0
1409 1 6.0412195447791950e-01 1.1742492638055772e+01 0.0000000000000000e+00 0 0 0
1427 1 6.1897913525143222e+00 1.1756880009171468e+01 0.0000000000000000e+00 0 0 0
1406 1 1.1787590818737755e+01 1.1378038565587531e+01 0.0000000000000000e+00 0 0 0
19 1 5.6877947193723246e+00 9.4644228378681694e-02 0.0000000000000000e+00 0 0 0
29 1 8.9687708320354531e+00 1.2976628247694022e-01 0.0000000000000000e+00 0 0 0
1408 1 2.7014644707040408e-01 1.1728658303612377e+01 0.0000000000000000e+00 0 0 0
40 1 1.6599798657577561e-01 2.7502066305259543e-01 0.0000000000000000e+00 0 0 0
41 1 6.8035389653618550e-01 1.8578524453134548e-01 0.0000000000000000e+00 0 0 0
42 1 1.0316209010066364e+00 3.0858188042658352e-01 0.0000000000000000e+00 0 0 0
43 1 1.3353950367698428e+00 1.7331887517047845e-01 0.0000000000000000e+00 0 0 0
44 1 1.6538679807310732e+00 2.9015362293709673e-01 0.0000000000000000e+00 0 0 0
45 1 1.9374963435143402e+00 4.1988164879780870e-01 0.0000000000000000e+00 0 0 0
46 1 2.2392305594377553e+00 2.7304160970148472e-01 0.0000000000000000e+00 0 0 0
47 1 2.5262324837650545e+00 2.3249997048101484e-01 0.0000000000000000e+00 0 0 0
48 1 2.8762818464938080e+00 3.8688993578858494e-01 0.0000000000000000e+00 0 0 0
49 1 3.0643713527593368e+00 4.8499718958092658e-01 0.0000000000000000e+00 0 0 0
50 1 3.2884228823579780e+00 3.3150822235517563e-01 0.0000000000000000e+00 0 0 0
51 1 3.7214463181250652e+00 4.5643897803885136e-01 0.0000000000000000e+00 0 0 0
52 1 3.9912167757180814e+00 3.9035532422144370e-01 0.0000000000000000e+00 0 0 0
53 1 4.3323216300560610e+00 5.0163198911281570e-01 0.0000000000000000e+00 0 0 0
54 1 4.7101326279741347e+00 3.0979976840813339e-01 0.0000000000000000e+00 0 0 0
55 1 5.0235517085153374e+00 2.3159522636012800e-01 0.0000000000000000e+00 0 0 0
56 1 5.3339145107918968e+00 3.5218291295355275e-01 0.0000000000000000e+00 0 0 0
57 1 5.6915111285572078e+00 4.0913786610076530e-01 0.0000000000000000e+00 0 0 0
58 1 5.9886759372581544e+00 2.5465968195884342e-01 0.0000000000000000e+00 0 0 0
59 1 6.3752226441670095e+00 4.1355958363654821e-01 0.0000000000000000e+00 0 0 0
60 1 6.9549076032052906e+00 3.4608457542583665e-01 0.0000000000000000e+00 0 0 0
61 1 7.1781505293040757e+00 3.6965174110321353e-01 0.0000000000000000e+00 0 0 0
62 1 7.4590257785259118e+00 2.4908314104153995e-01 0.0000000000000000e+00 0 0 0
63 1 7.7338291174318838e+00 3.2821116032379316e-01 0.0000000000000000e+00 0 0 0
64 1 8.0610885956246587e+00 1.5913134475463742e-01 0.0000000000000000e+00 0 0 0
65 1 8.3347264650456001e+00 2.7839367179654628e-01 0.0000000000000000e+00 0 0 0
66 1 8.6393560436709542e+00 2.9463544727626056e-01 0.0000000000000000e+00 0 0 0
67 1 9.0197597011206661e+00 3.7246654012348424e-01 0.0000000000000000e+00 0 0 0
68 1 9.2951934223323107e+00 3.6681718649965939e-01 0.0000000000000000e+00 0 0 0
69 1 9.5250909032867792e+00 3.7185829873083243e-01 0.0000000000000000e+00 0 0 0
70 1 9.7444608007448146e+00 2.9296020392648769e-01 0.0000000000000000e+00 0 0 0
71 1 1.0130243703205274e+01 4.4562552524970678e-01 0.0000000000000000e+00 0 0 0
72 1 1.0531320202030903e+01 2.4119344723067115e-01 0.0000000000000000e+00 0 0 0
73 1 1.0974985712319256e+01 3.4149707703608084e-01 0.0000000000000000e+00 0 0 0
74 1 1.1165526580549674e+01 1.6028729340550790e-01 0.0000000000000000e+00 0 0 0
75 1 1.1390910163823536e+01 3.3217394392999716e-01 0.0000000000000000e+00 0 0 0
76 1 1.1859838117237350e+01 2.0158554120535363e-01 0.0000000000000000e+00 0 0 0
3459 1 1.1958528291246839e+01 4.7152068334516244e+00 0.0000000000000000e+00 0 0 0
78 1 3.9120011891168638e-01 5.8659541961667050e-01 0.0000000000000000e+00 0 0 0
79 1 6.7607887588292459e-01 5.4456851104167747e-01 0.0000000000000000e+00 0 0 0
80 1 9.8120938423804216e-01 6.1047881689916572e-01 0.0000000000000000e+00 0 0 0
81 1 1.2815342837824510e+00 5.8949288185493465e-01 0.0000000000000000e+00 0 0 0
82 1 1.6295301891114029e+00 6.0339387490151641e-01 0.0000000000000000e+00 0 0 0
83 1 1.9223084014341256e+00 6.5194327713612332e-01 0.0000000000000000e+00 0 0 0
84 1 2.2479807968046730e+00 6.4239448915625430e-01 0.0000000000000000e+00 0 0 0
85 1 2.5155844927230002e+00 5.2408753898804639e-01 0.0000000000000000e+00 0 0 0
86 1 2.8357750482950523e+00 8.0788217885260716e-01 0.0000000000000000e+00 0 0 0
87 1 3.2046461898489764e+00 6.8982793845487500e-01 0.0000000000000000e+00 0 0 0
88 1 3.5673909451829209e+00 7.0331985261231333e-01 0.0000000000000000e+00 0 0 0
89 1 3.7917586065102049e+00 8.3632654472843648e-01 0.0000000000000000e+00 0 0 0
90 1 4.0405621091167196e+00 7.1767513667933769e-01 0.0000000000000000e+00 0 0 0
91 1 4.5281312458705285e+00 7.6845372513162746e-01 0.0000000000000000e+00 0 0 0
92 1 4.8509276344711409e+00 5.5097524298470757e-01 0.0000000000000000e+00 0 0 0
93 1 5.1935580254858920e+00 6.4849798788976609e-01 0.0000000000000000e+00 0 0 0
94 1 5.4902850854284271e+00 6.0703020292058008e-01 0.0000000000000000e+00 0 0 0
95 1 5.7657280962351152e+00 7.2734807797441481e-01 0.0000000000000000e+00 0 0 0
96 1 6.0978429683410678e+00 7.4458178864930091e-01 0.0000000000000000e+00 0 0 0
97 1 6.3627840019908293e+00 7.0541690895365594e-01 0.0000000000000000e+00 0 0 0
98 1 6.7992056251748938e+00 6.3951348203788871e-01 0.0000000000000000e+00 0 0 0
99 1 7.0922832584648159e+00 7.1472167289220301e-01 0.0000000000000000e+00 0 0 0
100 1 7.4385422417889622e+00 6.1349037879337942e-01 0.0000000000000000e+00 0 0 0
101 1 7.7434207478470309e+00 7.1183880253029586e-01 0.0000000000000000e+00 0 0 0
102 1 8.0262587504029241e+00 7.2698148450737576e-01 0.0000000000000000e+00 0 0 0
103 1 8.3608080640583040e+00 5.3485552270113312e-01 0.0000000000000000e+00 0 0 0
104 1 8.6402610828620841e+00 4.9273467629596684e-01 0.0000000000000000e+00 0 0 0
105 1 8.6437144105211576e+00 6.5271357266273422e-01 0.0000000000000000e+00 0 0 0
106 1 9.1933239558325663e+00 6.3901999795104036e-01 0.0000000000000000e+00 0 0 0
107 1 9.5904519172481599e+00 7.0040155682994287e-01 0.0000000000000000e+00 0 0 0
108 1 9.9435371047268255e+00 5.5230947698859634e-01 0.0000000000000000e+00 0 0 0
109 1 1.0173125459892898e+01 9.1931419853462537e-01 0.0000000000000000e+00 0 0 0
110 1 1.0407643151703878e+01 5.5640976150778521e-01 0.0000000000000000e+00 0 0 0
111 1 1.0649664324253610e+01 5.9773209970682539e-01 0.0000000000000000e+00 0 0 0
112 1 1.1082955119789403e+01 6.2521008914967757e-01 0.0000000000000000e+00 0 0 0
113 1 1.1436652695223238e+01 5.8759412965614566e-01 0.0000000000000000e+00 0 0 0
114 1 1.1783459623521050e+01 6.0119042252119870e-01 0.0000000000000000e+00 0 0 0
35 1 1.0763921285200867e+01 8.9328412953713812e-02 0.0000000000000000e+00 0 0 0
116 1 2.3984347726503896e-01 9.7191966596437818e-01 0.0000000000000000e+00 0 0 0
117 1 6.0669555442201906e-01 8.6493272064707982e-01 0.0000000000000000e+00 0 0 0
118 1 9.5495592329824264e-01 9.2511833031722146e-01 0.0000000000000000e+00 0 0 0
119 1 1.2936328089038907e+00 8.5917457766501615e-01 0.0000000000000000e+00 0 0 0
120 1 1.6351598106535190e+00 9.5184995656516103e-01 0.0000000000000000e+00 0 0 0
121 1 1.9518818333811270e+00 1.0502776898728186e+00 0.0000000000000000e+00 0 0 0
122 1 2.2519731991864500e+00 9.4771136370188391e-01 0.0000000000000000e+00 0 0 0
123 1 2.5276413078810838e+00 9.2652093611927577e-01 0.0000000000000000e+00 0 0 0
124 1 2.8475608929227483e+00 1.0192907962149145e+00 0.0000000000000000e+00 0 0 0
125 1 3.1724435168727676e+00 8.7159365490605323e-01 0.0000000000000000e+00 0 0 0
126 1 3.5668788031391157e+00 1.0986083560656703e+00 0.0000000000000000e+00 0 0 0
127 1 3.9563768528017951e+00 1.1245134733139166e+00 0.0000000000000000e+00 0 0 0
128 1 4.0966538033870865e+00 9.7624331659456587e-01 0.0000000000000000e+00 0 0 0
129 1 4.5747937848285938e+00 1.0324629465084647e+00 0.0000000000000000e+00 0 0 0
130 1 4.7960651147342679e+00 8.5127211911461009e-01 0.0000000000000000e+00 0 0 0
131 1 5.1141537173665288e+00 8.9259888864659453e-01 0.0000000000000000e+00 0 0 0
132 1 5.5289694616916831e+00 9.8214462966273519e-01 0.0000000000000000e+00 0 0 0
133 1 5.7527301511158555e+00 1.0294763131463613e+00 0.0000000000000000e+00 0 0 0
134 1 6.0849805734608813e+00 1.0809815543402694e+00 0.0000000000000000e+00 0 0 0
135 1 6.4000305952126766e+00 9.4008455848464567e-01 0.0000000000000000e+00 0 0 0
136 1 6.5384481611953325e+00 1.0002577112666236e+00 0.0000000000000000e+00 0 0 0
137 1 6.9188726221740557e+00 9.4601809772174827e-01 0.0000000000000000e+00 0 0 0
138 1 7.2468324288456367e+00 9.4374820617114352e-01 0.0000000000000000e+00 0 0 0
139 1 7.6685613223951732e+00 9.2797595234290609e-01 0.0000000000000000e+00 0 0 0
140 1 8.0079397980876692e+00 9.7294403133729568e-01 0.0000000000000000e+00 0 0 0
141 1 8.2809935118353799e+00 9.0761765795203786e-01 0.0000000000000000e+00 0 0 0
142 1 8.6583014323209468e+00 9.7684981745974131e-01 0.0000000000000000e+00 0 0 0
143 1 8.8930646396155986e+00 9.6967358502627343e-01 0.0000000000000000e+00 0 0 0
144 1 9.2198352201141542e+00 9.6058590279440881e-01 0.0000000000000000e+00 0 0 0
145 1 9.5109513661988814e+00 9.4463122949724176e-01 0.0000000000000000e+00 0 0 0
146 1 9.9257971565243768e+00 9.8611415170301542e-01 0.0000000000000000e+00 0 0 0
147 1 1.0313062347013140e+01 1.1802737881539516e+00 0.0000000000000000e+00 0 0 0
148 1 1.0462750667658042e+01 9.5107815799399953e-01 0.0000000000000000e+00 0 0 0
149 1 1.0839806641385751e+01 8.1066085341022986e-01 0.0000000000000000e+00 0 0 0
150 1 1.1188828679454780e+01 8.8851433631866128e-01 0.0000000000000000e+00 0 0 0
151 1 1.1578420479774266e+01 8.7082709598205610e-01 0.0000000000000000e+00 0 0 0
152 1 1.1893242344973757e+01 8.7065541385617062e-01 0.0000000000000000e+00 0 0 0
1444 1 1.1739080863587802e+01 1.1748424130978677e+01 0.0000000000000000e+00 0 0 0
154 1 3.2142463330264670e-01 1.3325380756469261e+00 0.0000000000000000e+00 0 0 0
155 1 5.2445611157695882e-01 1.1565561687505261e+00 0.0000000000000000e+00 0 0 0
156 1 1.0161692872618309e+00 1.2014493333010221e+00 0.0000000000000000e+00 0 0 0
157 1 1.3104689131676774e+00 1.1209750561657659e+00 0.0000000000000000e+00 0 0 0
158 1 1.6364014985376729e+00 1.1692614303714532e+00 0.0000000000000000e+00 0 0 0
159 1 2.0459249700866993e+00 1.2786079164473518e+00 0.0000000000000000e+00 0 0 0
160 1 2.2771734053939614e+00 1.3201438301481607e+00 0.0000000000000000e+00 0 0 0
161 1 2.5521442696274197e+00 1.2595495505973462e+00 0.0000000000000000e+00 0 0 0
162 1 2.9243730717646956e+00 1.2973851721246976e+00 0.0000000000000000e+00 0 0 0
163 1 3.2957879663379033e+00 1.2249896385013068e+00 0.0000000000000000e+00 0 0 0
164 1 3.6984099286872421e+00 1.3696597292930264e+00 0.0000000000000000e+00 0 0 0
165 1 3.9090287617151995e+00 1.4802936057983882e+00 0.0000000000000000e+00 0 0 0
166 1 4.2236880271051760e+00 1.3313625976378574e+00 0.0000000000000000e+00 0 0 0
167 1 4.4750302851419494e+00 1.2723448955691887e+00 0.0000000000000000e+00 0 0 0
168 1 4.9423486306704607e+00 1.2670665558173808e+00 0.0000000000000000e+00 0 0 0
169 1 5.2067949269984837e+00 1.2287287541686096e+00 0.0000000000000000e+00 0 0 0
170 1 5.3718655749415714e+00 1.3279495773180336e+00 0.0000000000000000e+00 0 0 0
171 1 5.7878072796011795e+00 1.4862452259918764e+00 0.0000000000000000e+00 0 0 0
172 1 6.0548211105424272e+00 1.4098931041354861e+00 0.0000000000000000e+00 0 0 0
173 1 6.4078533970927172e+00 1.4202181633130659e+00 0.0000000000000000e+00 0 0 0
174 1 6.7040105172393449e+00 1.3484658298938841e+00 0.0000000000000000e+00 0 0 0
175 1 7.0898727735681515e+00 1.2063772872983769e+00 0.0000000000000000e+00 0 0 0
176 1 7.4544658334247726e+00 1.1167114886730336e+00 0.0000000000000000e+00 0 0 0
177 1 7.6955593694623614e+00 1.3636458511183165e+00 0.0000000000000000e+00 0 0 0
178 1 8.0465706949472739e+00 1.2787721550781037e+00 0.0000000000000000e+00 0 0 0
179 1 8.3536821896522806e+00 1.2894296073867675e+00 0.0000000000000000e+00 0 0 0
180 1 8.6417692181731418e+00 1.4229280876647066e+00 0.0000000000000000e+00 0 0 0
181 1 8.8830995096949916e+00 1.2410824117060115e+00 0.0000000000000000e+00 0 0 0
182 1 9.2138318788391853e+00 1.1968609027295976e+00 0.0000000000000000e+00 0 0 0
183 1 9.5962124811365630e+00 1.2321277644939275e+00 0.0000000000000000e+00 0 0 0
184 1 9.9224262010887543e+00 1.3015043493212619e+00 0.0000000000000000e+00 0 0 0
185 1 1.0076797166522233e+01 1.3910506353164247e+00 0.0000000000000000e+00 0 0 0
186 1 1.0735655832177915e+01 1.1124879999165200e+00 0.0000000000000000e+00 0 0 0
187 1 1.0990641846077326e+01 1.1253496960972387e+00 0.0000000000000000e+00 0 0 0
188 1 1.1303117890240607e+01 1.2690752042968454e+00 0.0000000000000000e+00 0 0 0
189 1 1.1452652681178527e+01 1.1479271209282953e+00 0.0000000000000000e+00 0 0 0
190 1 1.1844993533033588e+01 1.3101105813079523e+00 0.0000000000000000e+00 0 0 0
1457 1 3.7235264192820239e+00 1.1863921909208150e+01 0.0000000000000000e+00 0 0 0
192 1 3.0569729970122511e-01 1.6766985385841602e+00 0.0000000000000000e+00 0 0 0
193 1 5.8598762614489841e-01 1.4647269458252064e+00 0.0000000000000000e+00 0 0 0
194 1 9.0745142591136962e-01 1.4441872118507444e+00 0.0000000000000000e+00 0 0 0
195 1 1.3604562297252449e+00 1.4329251169158304e+00 0.0000000000000000e+00 0 0 0
196 1 1.6755579689638482e+00 1.5031750191397473e+00 0.0000000000000000e+00 0 0 0
197 1 2.0080468981531316e+00 1.5735640812418827e+00 0.0000000000000000e+00 0 0 0
198 1 2.2053339208188509e+00 1.6979444832781612e+00 0.0000000000000000e+00 0 0 0
199 1 2.6268720740415548e+00 1.6130307301358249e+00 0.0000000000000000e+00 0 0 0
200 1 2.9178144675674575e+00 1.5873709354080858e+00 0.0000000000000000e+00 0 0 0
201 1 3.2043156283118441e+00 1.5678706340184014e+00 0.0000000000000000e+00 0 0 0
202 1 3.4460573946159681e+00 1.5580080197661652e+00 0.0000000000000000e+00 0 0 0
203 1 3.8351737615894330e+00 1.7045942804783711e+00 0.0000000000000000e+00 0 0 0
204 1 4.2937559963755101e+00 1.6693712243563028e+00 0.0000000000000000e+00 0 0 0
205 1 4.6279016641795252e+00 1.5208584415399471e+00 0.0000000000000000e+00 0 0 0
206 1 4.9194280311707965e+00 1.5699965857028384e+00 0.0000000000000000e+00 0 0 0
207 1 5.1177144995270876e+00 1.6108558056971078e+00 0.0000000000000000e+00 0 0 0
208 1 5.4603879943145577e+00 1.5607419811602758e+00 0.0000000000000000e+00 0 0 0
209 1 5.8619420956499599e+00 1.6830991361925589e+00 0.0000000000000000e+00 0 0 0
210 1 6.0933916846394789e+00 1.6980175829793867e+00 0.0000000000000000e+00 0 0 0
211 1 6.4200639620269246e+00 1.7187776246487367e+00 0.0000000000000000e+00 0 0 0
212 1 6.5992031606564945e+00 1.6711286219818351e+00 0.0000000000000000e+00 0 0 0
213 1 6.9936589429008267e+00 1.4501524634448000e+00 0.0000000000000000e+00 0 0 0
214 1 7.3317296642984360e+00 1.5299505199397176e+00 0.0000000000000000e+00 0 0 0
215 1 7.5665265138112012e+00 1.5854014421389748e+00 0.0000000000000000e+00 0 0 0
216 1 7.9765457817693370e+00 1.5762733359238226e+00 0.0000000000000000e+00 0 0 0
217 1 8.2548269846163294e+00 1.5436312392227842e+00 0.0000000000000000e+00 0 0 0
218 1 8.8025812456819192e+00 1.5857472653691851e+00 0.0000000000000000e+00 0 0 0
219 1 9.0783247347434912e+00 1.7067158101491571e+00 0.0000000000000000e+00 0 0 0
220 1 9.2928226602414590e+00 1.5329439161222376e+00 0.0000000000000000e+00 0 0 0
221 1 9.4950005328705132e+00 1.5957988538815600e+00 0.0000000000000000e+00 0 0 0
222 1 9.8043072732622658e+00 1.6070944290852540e+00 0.0000000000000000e+00 0 0 0
223 1 1.0241935803141178e+01 1.6070928691128394e+00 0.0000000000000000e+00 0 0 0
224 1 1.0631407093533374e+01 1.5397387846415953e+00 0.0000000000000000e+00 0 0 0
225 1 1.0753684777485004e+01 1.3600716956886827e+00 0.0000000000000000e+00 0 0 0
226 1 1.1154699551360949e+01 1.4942957385742366e+00 0.0000000000000000e+00 0 0 0
227 1 1.1533770955868020e+01 1.4198781421349960e+00 0.0000000000000000e+00 0 0 0
228 1 1.1738777717733768e+01 1.6250108141226463e+00 0.0000000000000000e+00 0 0 0
3725 1 1.1957768638372340e+01 7.0471616844929654e+00 0.0000000000000000e+00 0 0 0
230 1 5.0317999831914029e-01 1.8741306087903558e+00 0.0000000000000000e+00 0 0 0
231 1 8.6682497300905448e-01 1.8283921121863302e+00 0.0000000000000000e+00 0 0 0
232 1 1.1052512862060220e+00 1.7880822891270427e+00 0.0000000000000000e+00 0 0 0
233 1 1.2812690575373942e+00 1.7271627586221228e+00 0.0000000000000000e+00 0 0 0
234 1 1.5471796800608535e+00 1.8048902307370236e+00 0.0000000000000000e+00 0 0 0
235 1 1.8802734303158131e+00 1.9048347210641512e+00 0.0000000000000000e+00 0 0 0
236 1 2.1270014707165972e+00 2.0207558155231351e+00 0.0000000000000000e+00 0 0 0
237 1 2.5232411560800516e+00 1.8644209210197156e+00 0.0000000000000000e+00 0 0 0
238 1 2.7371793017224046e+00 1.8978883734633811e+00 0.0000000000000000e+00 0 0 0
239 1 3.1471022485624434e+00 1.8289625343808313e+00 0.0000000000000000e+00 0 0 0
240 1 3.4097879142634553e+00 1.8845803186014913e+00 0.0000000000000000e+00 0 0 0
241 1 3.8814717774336644e+00 1.9939630982535796e+00 0.0000000000000000e+00 0 0 0
242 1 4.1547621293837107e+00 1.9759326553820726e+00 0.0000000000000000e+00 0 0 0
243 1 4.4136872642336851e+00 1.9039732401553717e+00 0.0000000000000000e+00 0 0 0
244 1 4.7486433990838925e+00 1.9249318096567631e+00 0.0000000000000000e+00 0 0 0
245 1 5.0239821490158896e+00 1.9083063908811033e+00 0.0000000000000000e+00 0 0 0
246 1 5.4258404699372651e+00 1.8990022932423740e+00 0.0000000000000000e+00 0 0 0
247 1 5.7872725231901399e+00 1.8886713389171101e+00 0.0000000000000000e+00 0 0 0
248 1 5.9821969444057039e+00 2.2286001726639229e+00 0.0000000000000000e+00 0 0 0
249 1 6.3159442451223669e+00 2.0366509530059016e+00 0.0000000000000000e+00 0 0 0
250 1 6.7326150598473831e+00 1.8825701438642275e+00 0.0000000000000000e+00 0 0 0
251 1 7.0120806111599370e+00 1.7458771483910449e+00 0.0000000000000000e+00 0 0 0
252 1 7.3526632760934003e+00 1.8625309680059370e+00 0.0000000000000000e+00 0 0 0
253 1 7.6397427684144539e+00 1.9472757429103229e+00 0.0000000000000000e+00 0 0 0
254 1 7.8748456943457805e+00 1.8837844459703366e+00 0.0000000000000000e+00 0 0 0
255 1 8.3517578242602930e+00 1.8538277250312083e+00 0.0000000000000000e+00 0 0 0
256 1 8.7026641665495639e+00 1.8555161808627925e+00 0.0000000000000000e+00 0 0 0
257 1 8.9363478164747754e+00 1.9693916770846691e+00 0.0000000000000000e+00 0 0 0
258 1 9.1660720545881489e+00 1.9204399820623723e+00 0.0000000000000000e+00 0 0 0
259 1 9.5499911093116587e+00 1.8962018052972907e+00 0.0000000000000000e+00 0 0 0
260 1 9.8898720441159433e+00 1.9442725425353684e+00 0.0000000000000000e+00 0 0 0
261 1 1.0286845179730374e+01 1.8171889434283521e+00 0.0000000000000000e+00 0 0 0
262 1 1.0657125996653129e+01 1.8521452725683374e+00 0.0000000000000000e+00 0 0 0
263 1 1.0927088549538306e+01 1.7692967474966423e+00 0.0000000000000000e+00 0 0 0
264 1 1.1248962567008084e+01 1.7668214553327117e+00 0.0000000000000000e+00 0 0 0
265 1 1.1454744120630863e+01 1.9936213426896592e+00 0.0000000000000000e+00 0 0 0
266 1 1.1822538728816621e+01 1.9036100655762394e+00 0.0000000000000000e+00 0 0 0
1443 1 1.1441358596114934e+01 1.1749660937127398e+01 0.0000000000000000e+00 0 0 0
268 1 2.7326082149576314e-01 2.1326557549023586e+00 0.0000000000000000e+00 0 0 0
269 1 6.0182986527362015e-01 2.0964256298242159e+00 0.0000000000000000e+00 0 0 0
270 1 1.0639080437885249e+00 2.1009651131682441e+00 0.0000000000000000e+00 0 0 0
271 1 1.2450864407808306e+00 2.1857956050801866e+00 0.0000000000000000e+00 0 0 0
272 1 1.4970226021106257e+00 2.2926848059937237e+00 0.0000000000000000e+00 0 0 0
273 1 1.7604430674818288e+00 2.1316594480035613e+00 0.0000000000000000e+00 0 0 0
274 1 2.1103667446216750e+00 2.3001283066121063e+00 0.0000000000000000e+00 0 0 0
275 1 2.4598608132596493e+00 2.2926183806633187e+00 0.0000000000000000e+00 0 0 0
276 1 2.7098974529862465e+00 2.1672640718392566e+00 0.0000000000000000e+00 0 0 0
277 1 3.1506497306762991e+00 2.1292513655246434e+00 0.0000000000000000e+00 0 0 0
278 1 3.4734820315296968e+00 2.1618304534603388e+00 0.0000000000000000e+00 0 0 0
279 1 3.8063369290639626e+00 2.3296015473899732e+00 0.0000000000000000e+00 0 0 0
280 1 4.0569590128997284e+00 2.3261056904229056e+00 0.0000000000000000e+00 0 0 0
281 1 4.3893191894178631e+00 2.2688546363691215e+00 0.0000000000000000e+00 0 0 0
282 1 4.7575086033099900e+00 2.1937282337929784e+00 0.0000000000000000e+00 0 0 0
283 1 5.0733027704915310e+00 2.3036062824803385e+00 0.0000000000000000e+00 0 0 0
284 1 5.3406154309205398e+00 2.1960292794610941e+00 0.0000000000000000e+00 0 0 0
285 1 5.6555350800963993e+00 2.1747050871929443e+00 0.0000000000000000e+00 0 0 0
286 1 5.8770073137842154e+00 2.4674233252224274e+00 0.0000000000000000e+00 0 0 0
287 1 6.3223290108464010e+00 2.2873051816477856e+00 0.0000000000000000e+00 0 0 0
288 1 6.6087764179311792e+00 2.2733952801299790e+00 0.0000000000000000e+00 0 0 0
289 1 7.0304663515747077e+00 2.2581383352517808e+00 0.0000000000000000e+00 0 0 0
290 1 7.1679379602711961e+00 2.2003074588505105e+00 0.0000000000000000e+00 0 0 0
291 1 7.4604905536756050e+00 2.1996330146862131e+00 0.0000000000000000e+00 0 0 0
292 1 7.9662909813492524e+00 2.2186691000882188e+00 0.0000000000000000e+00 0 0 0
293 1 8.1766769476336307e+00 2.1001875456411891e+00 0.0000000000000000e+00 0 0 0
294 1 8.4735324992117214e+00 2.1566987820458436e+00 0.0000000000000000e+00 0 0 0
295 1 8.8639040743396080e+00 2.3457140745339062e+00 0.0000000000000000e+00 0 0 0
296 1 9.1436927819387233e+00 2.3412084397882134e+00 0.0000000000000000e+00 0 0 0
297 1 9.4597107538268634e+00 2.1784061352691984e+00 0.0000000000000000e+00 0 0 0
298 1 9.8264243831381712e+00 2.1345472950997788e+00 0.0000000000000000e+00 0 0 0
299 1 1.0294158474730070e+01 2.0926630426988115e+00 0.0000000000000000e+00 0 0 0
300 1 1.0587739392917822e+01 2.1478222953516024e+00 0.0000000000000000e+00 0 0 0
301 1 1.0934714030856638e+01 2.1013530493711414e+00 0.0000000000000000e+00 0 0 0
302 1 1.1285961019248353e+01 2.1071646847603156e+00 0.0000000000000000e+00 0 0 0
303 1 1.1594990051421718e+01 2.2805404172808652e+00 0.0000000000000000e+00 0 0 0
304 1 1.1860422124294988e+01 2.2848974918547604e+00 0.0000000000000000e+00 0 0 0
1442 1 1.1105059067911160e+01 1.1696985437269984e+01 0.0000000000000000e+00 0 0 0
306 1 1.5022470913440439e-01 2.4453997279962714e+00 0.0000000000000000e+00 0 0 0
307 1 4.3664158222159399e-01 2.4481745052333581e+00 0.0000000000000000e+00 0 0 0
308 1 7.7656712716423726e-01 2.3395353325265824e+00 0.0000000000000000e+00 0 0 0
309 1 1.1569040574866207e+00 2.4703484333573851e+00 0.0000000000000000e+00 0 0 0
310 1 1.5321841985891025e+00 2.5832566810840252e+00 0.0000000000000000e+00 0 0 0
311 1 1.8050962976007059e+00 2.5073303156732325e+00 0.0000000000000000e+00 0 0 0
312 1 2.1146121910072426e+00 2.5644907314942516e+00 0.0000000000000000e+00 0 0 0
313 1 2.5240927614301292e+00 2.4912655779882416e+00 0.0000000000000000e+00 0 0 0
314 1 2.8694560955897241e+00 2.4116829347726778e+00 0.0000000000000000e+00 0 0 0
315 1 3.1971404310580125e+00 2.5205286154873079e+00 0.0000000000000000e+00 0 0 0
316 1 3.5153582411961626e+00 2.4291125643600000e+00 0.0000000000000000e+00 0 0 0
317 1 3.7211048421329833e+00 2.6209743797932794e+00 0.0000000000000000e+00 0 0 0
318 1 4.1201619253857515e+00 2.5145696161097542e+00 0.0000000000000000e+00 0 0 0
319 1 4.4393032570757374e+00 2.6390977383964138e+00 0.0000000000000000e+00 0 0 0
320 1 4.7473916937039800e+00 2.4525842255899866e+00 0.0000000000000000e+00 0 0 0
321 1 5.1420381116742533e+00 2.5301094873622620e+00 0.0000000000000000e+00 0 0 0
322 1 5.4752927812570320e+00 2.4973641174960419e+00 0.0000000000000000e+00 0 0 0
323 1 5.5723932456263094e+00 2.6732621903462777e+00 0.0000000000000000e+00 0 0 0
324 1 5.9513031165056223e+00 2.7222322733012461e+00 0.0000000000000000e+00 0 0 0
325 1 6.3650748303742208e+00 2.6240202076898624e+00 0.0000000000000000e+00 0 0 0
326 1 6.6547146921172073e+00 2.5469669820316776e+00 0.0000000000000000e+00 0 0 0
327 1 6.9734890531260101e+00 2.6343291515838159e+00 0.0000000000000000e+00 0 0 0
328 1 7.2224833276662057e+00 2.4318166834438988e+00 0.0000000000000000e+00 0 0 0
329 1 7.5392215380728382e+00 2.5581822270172223e+00 0.0000000000000000e+00 0 0 0
330 1 7.9038184097270916e+00 2.4884955594246736e+00 0.0000000000000000e+00 0 0 0
331 1 8.1229281847675168e+00 2.5686662579796788e+00 0.0000000000000000e+00 0 0 0
332 1 8.3908424870923213e+00 2.4235080294902933e+00 0.0000000000000000e+00 0 0 0
333 1 8.5577896354593523e+00 2.5701384137464571e+00 0.0000000000000000e+00 0 0 0
334 1 9.1377856199721883e+00 2.5813913150877781e+00 0.0000000000000000e+00 0 0 0
335 1 9.5557425587611924e+00 2.5271122876743299e+00 0.0000000000000000e+00 0 0 0
336 1 9.9871884916615947e+00 2.4389820474410024e+00 0.0000000000000000e+00 0 0 0
337 1 1.0143665893266336e+01 2.2755474583099788e+00 0.0000000000000000e+00 0 0 0
338 1 1.0419074478636361e+01 2.4610340344318118e+00 0.0000000000000000e+00 0 0 0
339 1 1.0831584465891421e+01 2.3990641053599147e+00 0.0000000000000000e+00 0 0 0
340 1 1.1083422849506604e+01 2.4150125374558846e+00 0.0000000000000000e+00 0 0 0
341 1 1.1472988841145952e+01 2.5363338247445029e+00 0.0000000000000000e+00 0 0 0
342 1 1.1658026281644016e+01 2.7704435651311723e+00 0.0000000000000000e+00 0 0 0
685 1 4.3607010591999250e-02 5.7866823054995162e+00 0.0000000000000000e+00 0 0 0
344 1 3.0650038151310000e-01 2.7445202566665401e+00 0.0000000000000000e+00 0 0 0
345 1 6.0139821161227869e-01 2.7649844795275316e+00 0.0000000000000000e+00 0 0 0
346 1 8.9451090684569801e-01 2.6753243782919798e+00 0.0000000000000000e+00 0 0 0
347 1 1.1105468909968441e+00 2.7690053633164551e+00 0.0000000000000000e+00 0 0 0
348 1 1.4391922792788490e+00 2.8923337221510890e+00 0.0000000000000000e+00 0 0 0
349 1 1.7481082511535131e+00 2.8426661377002604e+00 0.0000000000000000e+00 0 0 0
350 1 2.2549773013438905e+00 2.8837931120104896e+00 0.0000000000000000e+00 0 0 0
351 1 2.4930295824248461e+00 2.7929869663989018e+00 0.0000000000000000e+00 0 0 0
352 1 2.7693282521362246e+00 2.7033802462279559e+00 0.0000000000000000e+00 0 0 0
353 1 3.0409728671798595e+00 2.8517454295403395e+00 0.0000000000000000e+00 0 0 0
354 1 3.3812710806132467e+00 2.8481060200815911e+00 0.0000000000000000e+00 0 0 0
355 1 3.6831596224795202e+00 2.8362302785412323e+00 0.0000000000000000e+00 0 0 0
356 1 4.0114623784237748e+00 2.9552091184627325e+00 0.0000000000000000e+00 0 0 0
357 1 4.2977019334243298e+00 2.8712873312381264e+00 0.0000000000000000e+00 0 0 0
358 1 4.6027080215822327e+00 2.9277657026493529e+00 0.0000000000000000e+00 0 0 0
359 1 4.8685751708055625e+00 2.7403867261271970e+00 0.0000000000000000e+00 0 0 0
360 1 5.1735403523802557e+00 2.8177995547902350e+00 0.0000000000000000e+00 0 0 0
361 1 5.6153028430964795e+00 3.0227498587171944e+00 0.0000000000000000e+00 0 0 0
362 1 5.9323239940888115e+00 2.9923861188963139e+00 0.0000000000000000e+00 0 0 0
363 1 6.3372879972950509e+00 2.8726958705488275e+00 0.0000000000000000e+00 0 0 0
364 1 6.5891765306545294e+00 2.8552760479156247e+00 0.0000000000000000e+00 0 0 0
365 1 7.0318348217778928e+00 2.9528569394182824e+00 0.0000000000000000e+00 0 0 0
366 1 7.3276208487189756e+00 2.7381778731422424e+00 0.0000000000000000e+00 0 0 0