LAMMPS data file from restart file: timestep = 0, procs = 1

6 atoms
5 bonds

1 atom types
1 bond types

0.0000000000000000e+00 1.0000000000000000e+01 xlo xhi
0.0000000000000000e+00 1.0000000000000000e+01 ylo yhi
0.0000000000000000e+00 1.0000000000000001e+01 zlo zhi

Masses

1 1

Atoms

1 1 1 5.0000000000000000e+00 5.0000000000000000e+00 5.0000000000000000e+00 0 0 0
2 1 1 5.5000000000000000e+00 5.0000000000000000e+00 5.0000000000000000e+00 0 0 0
3 1 1 6.0000000000000000e+00 5.0000000000000000e+00 5.0000000000000000e+00 0 0 0
4 1 1 6.5000000000000000e+00 5.0000000000000000e+00 5.0000000000000000e+00 0 0 0
5 1 1 7.0000000000000000e+00 5.0000000000000000e+00 5.0000000000000000e+00 0 0 0
6 1 1 7.5000000000000000e+00 5.0000000000000000e+00 5.0000000000000000e+00 0 0 0


Bonds

1 1 1 2
2 1 2 3
3 1 3 4
4 1 4 5
5 1 5 6

