ITEM: TIMESTEP
1000
ITEM: NUMBER OF ATOMS
216
ITEM: BOX BOUNDS pp pp pp
0 64
0 64
-0.01 0.01
ITEM: ATOMS id type xs ys zs
6544 3 0.116158 0.401057 0.5
6417 3 0.127258 0.396807 0.5
6545 3 0.124447 0.400636 0.5
6546 3 0.133798 0.401974 0.5
6547 3 0.14073 0.399299 0.5
6669 3 0.0975555 0.41019 0.5
6670 3 0.10408 0.409761 0.5
6671 3 0.110939 0.409942 0.5
6672 3 0.119164 0.408462 0.5
6673 3 0.127229 0.411391 0.5
6674 3 0.133997 0.410954 0.5
6675 3 0.141051 0.408827 0.5
6676 3 0.147831 0.407978 0.5
6797 3 0.0973209 0.415152 0.5
6798 3 0.103557 0.419402 0.5
6800 3 0.118862 0.417027 0.5
6927 3 0.111292 0.423931 0.5
6928 3 0.11824 0.424091 0.5
6799 3 0.11254 0.416391 0.5
6801 3 0.124708 0.416735 0.5
6929 3 0.126374 0.422565 0.5
6802 3 0.132138 0.416402 0.5
6930 3 0.134964 0.423105 0.5
6803 3 0.141495 0.414953 0.5
6804 3 0.150578 0.418346 0.5
6805 3 0.157524 0.417726 0.5
6932 3 0.150022 0.423839 0.5
6933 3 0.157934 0.42259 0.5
7052 3 0.0877527 0.432243 0.5
6925 3 0.0953675 0.426308 0.5
6926 3 0.101155 0.426202 0.5
7054 3 0.104685 0.432075 0.5
7055 3 0.111185 0.43006 0.5
7056 3 0.121888 0.433005 0.5
7057 3 0.126751 0.429669 0.5
7058 3 0.13888 0.431131 0.5
7186 3 0.133252 0.433883 0.5
6931 3 0.144542 0.426256 0.5
7059 3 0.14589 0.432964 0.5
7060 3 0.155141 0.433656 0.5
7061 3 0.161405 0.432458 0.5
7062 3 0.167121 0.428217 0.5
7053 3 0.0983004 0.435726 0.5
7180 3 0.0909492 0.439524 0.5
7182 3 0.106316 0.43848 0.5
7183 3 0.111727 0.439125 0.5
7184 3 0.120345 0.440442 0.5
7185 3 0.130838 0.437889 0.5
7187 3 0.14447 0.438922 0.5
7188 3 0.150059 0.441853 0.5
7189 3 0.157872 0.441768 0.5
7190 3 0.164507 0.440285 0.5
7181 3 0.0999625 0.445043 0.5
7309 3 0.0978308 0.450962 0.5
7310 3 0.105535 0.448713 0.5
7311 3 0.113074 0.448733 0.5
7312 3 0.1196 0.448275 0.5
7313 3 0.127781 0.447973 0.5
7314 3 0.133278 0.445676 0.5
7315 3 0.14171 0.446738 0.5
7316 3 0.147327 0.449403 0.5
7444 3 0.151861 0.453036 0.5
7317 3 0.158458 0.448701 0.5
7437 3 0.0940098 0.456108 0.5
7438 3 0.103649 0.460135 0.5
7439 3 0.110726 0.455185 0.5
7440 3 0.119538 0.459002 0.5
7441 3 0.126991 0.456147 0.5
7568 3 0.123228 0.463447 0.5
7442 3 0.133976 0.454405 0.5
7443 3 0.14439 0.457446 0.5
7445 3 0.156346 0.456485 0.5
7566 3 0.102798 0.466442 0.5
7567 3 0.110256 0.465841 0.5
7694 3 0.103427 0.470697 0.5
7695 3 0.112913 0.470618 0.5
7569 3 0.129825 0.465511 0.5
7696 3 0.121446 0.471926 0.5
7697 3 0.129672 0.473219 0.5
7570 3 0.134895 0.464861 0.5
7698 3 0.138919 0.467272 0.5
7571 3 0.147046 0.464293 0.5
7699 3 0.148474 0.473016 0.5
7572 3 0.151781 0.465447 0.5
7700 3 0.152482 0.47339 0.5
7823 3 0.110634 0.480191 0.5
7824 3 0.120431 0.478678 0.5
7825 3 0.134072 0.47857 0.5
7827 3 0.145401 0.481894 0.5
7951 3 0.115816 0.487047 0.5
8080 3 0.12201 0.4919 0.5
7952 3 0.121799 0.486325 0.5
7953 3 0.127849 0.485071 0.5
7826 3 0.136599 0.484892 0.5
7954 3 0.135328 0.492259 0.5
7955 3 0.144035 0.490344 0.5
8079 3 0.112761 0.493396 0.5
8207 3 0.113075 0.502477 0.5
8081 3 0.127004 0.495362 0.5
8208 3 0.120441 0.498738 0.5
8082 3 0.136668 0.498968 0.5
8209 3 0.12825 0.504532 0.5
8336 3 0.120795 0.511223 0.5
8337 3 0.129829 0.510246 0.5
8338 3 0.133694 0.509374 0.5
8210 3 0.140183 0.506413 0.5
8464 3 0.12037 0.518223 0.5
8465 3 0.127171 0.520005 0.5
8466 3 0.133066 0.517561 0.5
8592 3 0.116849 0.524457 0.5
8593 3 0.127407 0.526132 0.5
8594 3 0.137056 0.525948 0.5
8720 3 0.118849 0.532861 0.5
8848 3 0.118976 0.541912 0.5
8721 3 0.128384 0.534522 0.5
8849 3 0.126878 0.540712 0.5
8722 3 0.135651 0.534662 0.5
8847 3 0.113236 0.543306 0.5
8975 3 0.116499 0.548261 0.5
8976 3 0.120712 0.549842 0.5
8977 3 0.129524 0.54944 0.5
8850 3 0.134691 0.544374 0.5
8851 3 0.143546 0.542508 0.5
9102 3 0.107822 0.559243 0.5
9103 3 0.116069 0.557841 0.5
9104 3 0.11955 0.559372 0.5
9105 3 0.127438 0.561385 0.5
9106 3 0.134989 0.5572 0.5
8978 3 0.139057 0.552392 0.5
9107 3 0.144196 0.558767 0.5
9108 3 0.151173 0.558029 0.5
9230 3 0.102165 0.565517 0.5
9231 3 0.113349 0.566465 0.5
9232 3 0.122964 0.569125 0.5
9233 3 0.128527 0.569468 0.5
9234 3 0.135817 0.565671 0.5
9235 3 0.143108 0.56625 0.5
9363 3 0.145829 0.571252 0.5
9236 3 0.151002 0.567409 0.5
9486 3 0.100475 0.57983 0.5
9358 3 0.102588 0.572152 0.5
9359 3 0.110322 0.573012 0.5
9487 3 0.110155 0.579967 0.5
9360 3 0.116833 0.574464 0.5
9361 3 0.13169 0.575759 0.5
9362 3 0.139199 0.574548 0.5
9491 3 0.144761 0.58124 0.5
9364 3 0.151018 0.574298 0.5
9365 3 0.159028 0.573679 0.5
9493 3 0.159824 0.580066 0.5
9613 3 0.098912 0.587616 0.5
9614 3 0.107452 0.586971 0.5
9615 3 0.114329 0.586318 0.5
9488 3 0.121872 0.582851 0.5
9489 3 0.128411 0.581851 0.5
9616 3 0.121176 0.589021 0.5
9617 3 0.128008 0.588314 0.5
9490 3 0.137816 0.583973 0.5
9618 3 0.137192 0.590247 0.5
9619 3 0.143927 0.590579 0.5
9492 3 0.151647 0.581373 0.5
9620 3 0.154069 0.589225 0.5
9621 3 0.160342 0.58601 0.5
9740 3 0.0916486 0.595681 0.5
9741 3 0.0964114 0.596403 0.5
9870 3 0.105358 0.600716 0.5
9742 3 0.103857 0.595663 0.5
9743 3 0.110349 0.595691 0.5
9744 3 0.120433 0.596737 0.5
9745 3 0.12979 0.596809 0.5
9746 3 0.134531 0.599287 0.5
9747 3 0.141446 0.598373 0.5
9876 3 0.156327 0.600613 0.5
9748 3 0.150464 0.596373 0.5
9749 3 0.161459 0.593284 0.5
9868 3 0.0927338 0.605667 0.5
9869 3 0.097871 0.602116 0.5
9997 3 0.0977717 0.610922 0.5
9998 3 0.1032 0.608778 0.5
9871 3 0.113477 0.603842 0.5
9872 3 0.119667 0.601751 0.5
9999 3 0.111628 0.610323 0.5
9873 3 0.127731 0.603958 0.5
10001 3 0.124345 0.610565 0.5
9874 3 0.139731 0.608326 0.5
9875 3 0.143694 0.604324 0.5
10003 3 0.148718 0.608832 0.5
9877 3 0.162955 0.603162 0.5
9996 3 0.0897819 0.614346 0.5
10127 3 0.108599 0.616528 0.5
10000 3 0.119451 0.61315 0.5
10129 3 0.126398 0.620116 0.5
10002 3 0.13244 0.612598 0.5
10130 3 0.133677 0.619129 0.5
10131 3 0.140818 0.620245 0.5
10004 3 0.155738 0.611183 0.5
10005 3 0.161331 0.611546 0.5
10125 3 0.0969894 0.62295 0.5
10126 3 0.102435 0.621028 0.5
10254 3 0.105356 0.628879 0.5
10255 3 0.109959 0.628543 0.5
10128 3 0.117555 0.620686 0.5
10256 3 0.117036 0.626419 0.5
10257 3 0.124058 0.62623 0.5
10258 3 0.131981 0.627688 0.5
10132 3 0.147907 0.620619 0.5
10259 3 0.143982 0.628155 0.5
10133 3 0.157701 0.620774 0.5
10260 3 0.151698 0.62672 0.5
10261 3 0.157666 0.627316 0.5
10383 3 0.113129 0.635241 0.5
10384 3 0.120746 0.634496 0.5
10385 3 0.12713 0.633715 0.5
10513 3 0.128879 0.639561 0.5
10386 3 0.137401 0.6319 0.5
10514 3 0.137204 0.638811 0.5
