LAMMPS data file via write_data, version 6 Feb 2014, timestep = 0

100 atoms
2 atom types

0.0000000000000000e+00 1.0000000000000000e+00 xlo xhi
0.0000000000000000e+00 1.0000000000000000e+00 ylo yhi
-3.3333333333333298e-02 1.0000000000000001e-01 zlo zhi

Masses

1 1
2 1

Atoms

1 2 5.0000000000000003e-02 5.0000000000000003e-02 0.0000000000000000e+00 0.0000000000000000e+00 0.0000000000000000e+00 1.0000000000000000e+00 0 0 0 0
2 2 1.5000000000000002e-01 5.0000000000000003e-02 0.0000000000000000e+00 0.0000000000000000e+00 0.0000000000000000e+00 1.0000000000000000e+00 0 0 0 0
3 2 2.5000000000000000e-01 5.0000000000000003e-02 0.0000000000000000e+00 0.0000000000000000e+00 0.0000000000000000e+00 1.0000000000000000e+00 0 0 0 0
4 2 3.5000000000000003e-01 5.0000000000000003e-02 0.0000000000000000e+00 0.0000000000000000e+00 0.0000000000000000e+00 1.0000000000000000e+00 0 0 0 0
5 2 4.5000000000000001e-01 5.0000000000000003e-02 0.0000000000000000e+00 0.0000000000000000e+00 0.0000000000000000e+00 1.0000000000000000e+00 0 0 0 0
6 2 5.5000000000000004e-01 5.0000000000000003e-02 0.0000000000000000e+00 0.0000000000000000e+00 0.0000000000000000e+00 1.0000000000000000e+00 0 0 0 0
7 1 6.5000000000000013e-01 5.0000000000000003e-02 0.0000000000000000e+00 0.0000000000000000e+00 0.0000000000000000e+00 1.0000000000000000e+00 0 0 0 0
8 1 7.5000000000000011e-01 5.0000000000000003e-02 0.0000000000000000e+00 0.0000000000000000e+00 0.0000000000000000e+00 1.0000000000000000e+00 0 0 0 0
9 1 8.5000000000000009e-01 5.0000000000000003e-02 0.0000000000000000e+00 0.0000000000000000e+00 0.0000000000000000e+00 1.0000000000000000e+00 0 0 0 0
10 1 9.5000000000000007e-01 5.0000000000000003e-02 0.0000000000000000e+00 0.0000000000000000e+00 0.0000000000000000e+00 1.0000000000000000e+00 0 0 0 0
11 1 5.0000000000000003e-02 1.5000000000000002e-01 0.0000000000000000e+00 0.0000000000000000e+00 0.0000000000000000e+00 1.0000000000000000e+00 0 0 0 0
12 1 1.5000000000000002e-01 1.5000000000000002e-01 0.0000000000000000e+00 0.0000000000000000e+00 0.0000000000000000e+00 1.0000000000000000e+00 0 0 0 0
13 1 2.5000000000000000e-01 1.5000000000000002e-01 0.0000000000000000e+00 0.0000000000000000e+00 0.0000000000000000e+00 1.0000000000000000e+00 0 0 0 0
14 1 3.5000000000000003e-01 1.5000000000000002e-01 0.0000000000000000e+00 0.0000000000000000e+00 0.0000000000000000e+00 1.0000000000000000e+00 0 0 0 0
15 1 4.5000000000000001e-01 1.5000000000000002e-01 0.0000000000000000e+00 0.0000000000000000e+00 0.0000000000000000e+00 1.0000000000000000e+00 0 0 0 0
16 1 5.5000000000000004e-01 1.5000000000000002e-01 0.0000000000000000e+00 0.0000000000000000e+00 0.0000000000000000e+00 1.0000000000000000e+00 0 0 0 0
17 1 6.5000000000000013e-01 1.5000000000000002e-01 0.0000000000000000e+00 0.0000000000000000e+00 0.0000000000000000e+00 1.0000000000000000e+00 0 0 0 0
18 1 7.5000000000000011e-01 1.5000000000000002e-01 0.0000000000000000e+00 0.0000000000000000e+00 0.0000000000000000e+00 1.0000000000000000e+00 0 0 0 0
19 1 8.5000000000000009e-01 1.5000000000000002e-01 0.0000000000000000e+00 0.0000000000000000e+00 0.0000000000000000e+00 1.0000000000000000e+00 0 0 0 0
20 1 9.5000000000000007e-01 1.5000000000000002e-01 0.0000000000000000e+00 0.0000000000000000e+00 0.0000000000000000e+00 1.0000000000000000e+00 0 0 0 0
21 1 5.0000000000000003e-02 2.5000000000000000e-01 0.0000000000000000e+00 0.0000000000000000e+00 0.0000000000000000e+00 1.0000000000000000e+00 0 0 0 0
22 1 1.5000000000000002e-01 2.5000000000000000e-01 0.0000000000000000e+00 0.0000000000000000e+00 0.0000000000000000e+00 1.0000000000000000e+00 0 0 0 0
23 1 2.5000000000000000e-01 2.5000000000000000e-01 0.0000000000000000e+00 0.0000000000000000e+00 0.0000000000000000e+00 1.0000000000000000e+00 0 0 0 0
24 1 3.5000000000000003e-01 2.5000000000000000e-01 0.0000000000000000e+00 0.0000000000000000e+00 0.0000000000000000e+00 1.0000000000000000e+00 0 0 0 0
25 1 4.5000000000000001e-01 2.5000000000000000e-01 0.0000000000000000e+00 0.0000000000000000e+00 0.0000000000000000e+00 1.0000000000000000e+00 0 0 0 0
26 1 5.5000000000000004e-01 2.5000000000000000e-01 0.0000000000000000e+00 0.0000000000000000e+00 0.0000000000000000e+00 1.0000000000000000e+00 0 0 0 0
27 1 6.5000000000000013e-01 2.5000000000000000e-01 0.0000000000000000e+00 0.0000000000000000e+00 0.0000000000000000e+00 1.0000000000000000e+00 0 0 0 0
28 1 7.5000000000000011e-01 2.5000000000000000e-01 0.0000000000000000e+00 0.0000000000000000e+00 0.0000000000000000e+00 1.0000000000000000e+00 0 0 0 0
29 1 8.5000000000000009e-01 2.5000000000000000e-01 0.0000000000000000e+00 0.0000000000000000e+00 0.0000000000000000e+00 1.0000000000000000e+00 0 0 0 0
30 1 9.5000000000000007e-01 2.5000000000000000e-01 0.0000000000000000e+00 0.0000000000000000e+00 0.0000000000000000e+00 1.0000000000000000e+00 0 0 0 0
31 1 5.0000000000000003e-02 3.5000000000000003e-01 0.0000000000000000e+00 0.0000000000000000e+00 0.0000000000000000e+00 1.0000000000000000e+00 0 0 0 0
32 1 1.5000000000000002e-01 3.5000000000000003e-01 0.0000000000000000e+00 0.0000000000000000e+00 0.0000000000000000e+00 1.0000000000000000e+00 0 0 0 0
33 1 2.5000000000000000e-01 3.5000000000000003e-01 0.0000000000000000e+00 0.0000000000000000e+00 0.0000000000000000e+00 1.0000000000000000e+00 0 0 0 0
34 1 3.5000000000000003e-01 3.5000000000000003e-01 0.0000000000000000e+00 0.0000000000000000e+00 0.0000000000000000e+00 1.0000000000000000e+00 0 0 0 0
35 1 4.5000000000000001e-01 3.5000000000000003e-01 0.0000000000000000e+00 0.0000000000000000e+00 0.0000000000000000e+00 1.0000000000000000e+00 0 0 0 0
36 1 5.5000000000000004e-01 3.5000000000000003e-01 0.0000000000000000e+00 0.0000000000000000e+00 0.0000000000000000e+00 1.0000000000000000e+00 0 0 0 0
37 1 6.5000000000000013e-01 3.5000000000000003e-01 0.0000000000000000e+00 0.0000000000000000e+00 0.0000000000000000e+00 1.0000000000000000e+00 0 0 0 0
38 1 7.5000000000000011e-01 3.5000000000000003e-01 0.0000000000000000e+00 0.0000000000000000e+00 0.0000000000000000e+00 1.0000000000000000e+00 0 0 0 0
39 1 8.5000000000000009e-01 3.5000000000000003e-01 0.0000000000000000e+00 0.0000000000000000e+00 0.0000000000000000e+00 1.0000000000000000e+00 0 0 0 0
40 1 9.5000000000000007e-01 3.5000000000000003e-01 0.0000000000000000e+00 0.0000000000000000e+00 0.0000000000000000e+00 1.0000000000000000e+00 0 0 0 0
41 1 5.0000000000000003e-02 4.5000000000000001e-01 0.0000000000000000e+00 0.0000000000000000e+00 0.0000000000000000e+00 1.0000000000000000e+00 0 0 0 0
42 1 1.5000000000000002e-01 4.5000000000000001e-01 0.0000000000000000e+00 0.0000000000000000e+00 0.0000000000000000e+00 1.0000000000000000e+00 0 0 0 0
43 1 2.5000000000000000e-01 4.5000000000000001e-01 0.0000000000000000e+00 0.0000000000000000e+00 0.0000000000000000e+00 1.0000000000000000e+00 0 0 0 0
44 1 3.5000000000000003e-01 4.5000000000000001e-01 0.0000000000000000e+00 0.0000000000000000e+00 0.0000000000000000e+00 1.0000000000000000e+00 0 0 0 0
45 1 4.5000000000000001e-01 4.5000000000000001e-01 0.0000000000000000e+00 0.0000000000000000e+00 0.0000000000000000e+00 1.0000000000000000e+00 0 0 0 0
46 1 5.5000000000000004e-01 4.5000000000000001e-01 0.0000000000000000e+00 0.0000000000000000e+00 0.0000000000000000e+00 1.0000000000000000e+00 0 0 0 0
47 1 6.5000000000000013e-01 4.5000000000000001e-01 0.0000000000000000e+00 0.0000000000000000e+00 0.0000000000000000e+00 1.0000000000000000e+00 0 0 0 0
48 1 7.5000000000000011e-01 4.5000000000000001e-01 0.0000000000000000e+00 0.0000000000000000e+00 0.0000000000000000e+00 1.0000000000000000e+00 0 0 0 0
49 1 8.5000000000000009e-01 4.5000000000000001e-01 0.0000000000000000e+00 0.0000000000000000e+00 0.0000000000000000e+00 1.0000000000000000e+00 0 0 0 0
50 1 9.5000000000000007e-01 4.5000000000000001e-01 0.0000000000000000e+00 0.0000000000000000e+00 0.0000000000000000e+00 1.0000000000000000e+00 0 0 0 0
51 1 5.0000000000000003e-02 5.5000000000000004e-01 0.0000000000000000e+00 0.0000000000000000e+00 0.0000000000000000e+00 1.0000000000000000e+00 0 0 0 0
52 1 1.5000000000000002e-01 5.5000000000000004e-01 0.0000000000000000e+00 0.0000000000000000e+00 0.0000000000000000e+00 1.0000000000000000e+00 0 0 0 0
53 1 2.5000000000000000e-01 5.5000000000000004e-01 0.0000000000000000e+00 0.0000000000000000e+00 0.0000000000000000e+00 1.0000000000000000e+00 0 0 0 0
54 1 3.5000000000000003e-01 5.5000000000000004e-01 0.0000000000000000e+00 0.0000000000000000e+00 0.0000000000000000e+00 1.0000000000000000e+00 0 0 0 0
55 1 4.5000000000000001e-01 5.5000000000000004e-01 0.0000000000000000e+00 0.0000000000000000e+00 0.0000000000000000e+00 1.0000000000000000e+00 0 0 0 0
56 1 5.5000000000000004e-01 5.5000000000000004e-01 0.0000000000000000e+00 0.0000000000000000e+00 0.0000000000000000e+00 1.0000000000000000e+00 0 0 0 0
57 1 6.5000000000000013e-01 5.5000000000000004e-01 0.0000000000000000e+00 0.0000000000000000e+00 0.0000000000000000e+00 1.0000000000000000e+00 0 0 0 0
58 1 7.5000000000000011e-01 5.5000000000000004e-01 0.0000000000000000e+00 0.0000000000000000e+00 0.0000000000000000e+00 1.0000000000000000e+00 0 0 0 0
59 1 8.5000000000000009e-01 5.5000000000000004e-01 0.0000000000000000e+00 0.0000000000000000e+00 0.0000000000000000e+00 1.0000000000000000e+00 0 0 0 0
60 1 9.5000000000000007e-01 5.5000000000000004e-01 0.0000000000000000e+00 0.0000000000000000e+00 0.0000000000000000e+00 1.0000000000000000e+00 0 0 0 0
61 1 5.0000000000000003e-02 6.5000000000000013e-01 0.0000000000000000e+00 0.0000000000000000e+00 0.0000000000000000e+00 1.0000000000000000e+00 0 0 0 0
62 1 1.5000000000000002e-01 6.5000000000000013e-01 0.0000000000000000e+00 0.0000000000000000e+00 0.0000000000000000e+00 1.0000000000000000e+00 0 0 0 0
63 1 2.5000000000000000e-01 6.5000000000000013e-01 0.0000000000000000e+00 0.0000000000000000e+00 0.0000000000000000e+00 1.0000000000000000e+00 0 0 0 0
64 1 3.5000000000000003e-01 6.5000000000000013e-01 0.0000000000000000e+00 0.0000000000000000e+00 0.0000000000000000e+00 1.0000000000000000e+00 0 0 0 0
65 1 4.5000000000000001e-01 6.5000000000000013e-01 0.0000000000000000e+00 0.0000000000000000e+00 0.0000000000000000e+00 1.0000000000000000e+00 0 0 0 0
66 1 5.5000000000000004e-01 6.5000000000000013e-01 0.0000000000000000e+00 0.0000000000000000e+00 0.0000000000000000e+00 1.0000000000000000e+00 0 0 0 0
67 1 6.5000000000000013e-01 6.5000000000000013e-01 0.0000000000000000e+00 0.0000000000000000e+00 0.0000000000000000e+00 1.0000000000000000e+00 0 0 0 0
68 1 7.5000000000000011e-01 6.5000000000000013e-01 0.0000000000000000e+00 0.0000000000000000e+00 0.0000000000000000e+00 1.0000000000000000e+00 0 0 0 0
69 1 8.5000000000000009e-01 6.5000000000000013e-01 0.0000000000000000e+00 0.0000000000000000e+00 0.0000000000000000e+00 1.0000000000000000e+00 0 0 0 0
70 1 9.5000000000000007e-01 6.5000000000000013e-01 0.0000000000000000e+00 0.0000000000000000e+00 0.0000000000000000e+00 1.0000000000000000e+00 0 0 0 0
71 1 5.0000000000000003e-02 7.5000000000000011e-01 0.0000000000000000e+00 0.0000000000000000e+00 0.0000000000000000e+00 1.0000000000000000e+00 0 0 0 0
72 1 1.5000000000000002e-01 7.5000000000000011e-01 0.0000000000000000e+00 0.0000000000000000e+00 0.0000000000000000e+00 1.0000000000000000e+00 0 0 0 0
73 1 2.5000000000000000e-01 7.5000000000000011e-01 0.0000000000000000e+00 0.0000000000000000e+00 0.0000000000000000e+00 1.0000000000000000e+00 0 0 0 0
74 1 3.5000000000000003e-01 7.5000000000000011e-01 0.0000000000000000e+00 0.0000000000000000e+00 0.0000000000000000e+00 1.0000000000000000e+00 0 0 0 0
75 1 4.5000000000000001e-01 7.5000000000000011e-01 0.0000000000000000e+00 0.0000000000000000e+00 0.0000000000000000e+00 1.0000000000000000e+00 0 0 0 0
76 1 5.5000000000000004e-01 7.5000000000000011e-01 0.0000000000000000e+00 0.0000000000000000e+00 0.0000000000000000e+00 1.0000000000000000e+00 0 0 0 0
77 1 6.5000000000000013e-01 7.5000000000000011e-01 0.0000000000000000e+00 0.0000000000000000e+00 0.0000000000000000e+00 1.0000000000000000e+00 0 0 0 0
78 1 7.5000000000000011e-01 7.5000000000000011e-01 0.0000000000000000e+00 0.0000000000000000e+00 0.0000000000000000e+00 1.0000000000000000e+00 0 0 0 0
79 1 8.5000000000000009e-01 7.5000000000000011e-01 0.0000000000000000e+00 0.0000000000000000e+00 0.0000000000000000e+00 1.0000000000000000e+00 0 0 0 0
80 1 9.5000000000000007e-01 7.5000000000000011e-01 0.0000000000000000e+00 0.0000000000000000e+00 0.0000000000000000e+00 1.0000000000000000e+00 0 0 0 0
81 1 5.0000000000000003e-02 8.5000000000000009e-01 0.0000000000000000e+00 0.0000000000000000e+00 0.0000000000000000e+00 1.0000000000000000e+00 0 0 0 0
82 1 1.5000000000000002e-01 8.5000000000000009e-01 0.0000000000000000e+00 0.0000000000000000e+00 0.0000000000000000e+00 1.0000000000000000e+00 0 0 0 0
83 1 2.5000000000000000e-01 8.5000000000000009e-01 0.0000000000000000e+00 0.0000000000000000e+00 0.0000000000000000e+00 1.0000000000000000e+00 0 0 0 0
84 1 3.5000000000000003e-01 8.5000000000000009e-01 0.0000000000000000e+00 0.0000000000000000e+00 0.0000000000000000e+00 1.0000000000000000e+00 0 0 0 0
85 1 4.5000000000000001e-01 8.5000000000000009e-01 0.0000000000000000e+00 0.0000000000000000e+00 0.0000000000000000e+00 1.0000000000000000e+00 0 0 0 0
86 1 5.5000000000000004e-01 8.5000000000000009e-01 0.0000000000000000e+00 0.0000000000000000e+00 0.0000000000000000e+00 1.0000000000000000e+00 0 0 0 0
87 1 6.5000000000000013e-01 8.5000000000000009e-01 0.0000000000000000e+00 0.0000000000000000e+00 0.0000000000000000e+00 1.0000000000000000e+00 0 0 0 0
88 1 7.5000000000000011e-01 8.5000000000000009e-01 0.0000000000000000e+00 0.0000000000000000e+00 0.0000000000000000e+00 1.0000000000000000e+00 0 0 0 0
89 1 8.5000000000000009e-01 8.5000000000000009e-01 0.0000000000000000e+00 0.0000000000000000e+00 0.0000000000000000e+00 1.0000000000000000e+00 0 0 0 0
90 1 9.5000000000000007e-01 8.5000000000000009e-01 0.0000000000000000e+00 0.0000000000000000e+00 0.0000000000000000e+00 1.0000000000000000e+00 0 0 0 0
91 1 5.0000000000000003e-02 9.5000000000000007e-01 0.0000000000000000e+00 0.0000000000000000e+00 0.0000000000000000e+00 1.0000000000000000e+00 0 0 0 0
92 1 1.5000000000000002e-01 9.5000000000000007e-01 0.0000000000000000e+00 0.0000000000000000e+00 0.0000000000000000e+00 1.0000000000000000e+00 0 0 0 0
93 1 2.5000000000000000e-01 9.5000000000000007e-01 0.0000000000000000e+00 0.0000000000000000e+00 0.0000000000000000e+00 1.0000000000000000e+00 0 0 0 0
94 1 3.5000000000000003e-01 9.5000000000000007e-01 0.0000000000000000e+00 0.0000000000000000e+00 0.0000000000000000e+00 1.0000000000000000e+00 0 0 0 0
95 1 4.5000000000000001e-01 9.5000000000000007e-01 0.0000000000000000e+00 0.0000000000000000e+00 0.0000000000000000e+00 1.0000000000000000e+00 0 0 0 0
96 1 5.5000000000000004e-01 9.5000000000000007e-01 0.0000000000000000e+00 0.0000000000000000e+00 0.0000000000000000e+00 1.0000000000000000e+00 0 0 0 0
97 1 6.5000000000000013e-01 9.5000000000000007e-01 0.0000000000000000e+00 0.0000000000000000e+00 0.0000000000000000e+00 1.0000000000000000e+00 0 0 0 0
98 1 7.5000000000000011e-01 9.5000000000000007e-01 0.0000000000000000e+00 0.0000000000000000e+00 0.0000000000000000e+00 1.0000000000000000e+00 0 0 0 0
99 1 8.5000000000000009e-01 9.5000000000000007e-01 0.0000000000000000e+00 0.0000000000000000e+00 0.0000000000000000e+00 1.0000000000000000e+00 0 0 0 0
100 1 9.5000000000000007e-01 9.5000000000000007e-01 0.0000000000000000e+00 0.0000000000000000e+00 0.0000000000000000e+00 1.0000000000000000e+00 0 0 0 0

Velocities

1 0 0 0
2 0 0 0
3 0 0 0
4 0 0 0
5 0 0 0
6 0 0 0
7 0 0 0
8 0 0 0
9 0 0 0
10 0 0 0
11 0 0 0
12 0 0 0
13 0 0 0
14 0 0 0
15 0 0 0
16 0 0 0
17 0 0 0
18 0 0 0
19 0 0 0
20 0 0 0
21 0 0 0
22 0 0 0
23 0 0 0
24 0 0 0
25 0 0 0
26 0 0 0
27 0 0 0
28 0 0 0
29 0 0 0
30 0 0 0
31 0 0 0
32 0 0 0
33 0 0 0
34 0 0 0
35 0 0 0
36 0 0 0
37 0 0 0
38 0 0 0
39 0 0 0
40 0 0 0
41 0 0 0
42 0 0 0
43 0 0 0
44 0 0 0
45 0 0 0
46 0 0 0
47 0 0 0
48 0 0 0
49 0 0 0
50 0 0 0
51 0 0 0
52 0 0 0
53 0 0 0
54 0 0 0
55 0 0 0
56 0 0 0
57 0 0 0
58 0 0 0
59 0 0 0
60 0 0 0
61 0 0 0
62 0 0 0
63 0 0 0
64 0 0 0
65 0 0 0
66 0 0 0
67 0 0 0
68 0 0 0
69 0 0 0
70 0 0 0
71 0 0 0
72 0 0 0
73 0 0 0
74 0 0 0
75 0 0 0
76 0 0 0
77 0 0 0
78 0 0 0
79 0 0 0
80 0 0 0
81 0 0 0
82 0 0 0
83 0 0 0
84 0 0 0
85 0 0 0
86 0 0 0
87 0 0 0
88 0 0 0
89 0 0 0
90 0 0 0
91 0 0 0
92 0 0 0
93 0 0 0
94 0 0 0
95 0 0 0
96 0 0 0
97 0 0 0
98 0 0 0
99 0 0 0
100 0 0 0
