ITEM: TIMESTEP
0
ITEM: NUMBER OF ATOMS
100
ITEM: BOX BOUNDS pp pp pp
0 1
0 1
-0.0333333 0.1
ITEM: ATOMS id type x y vx vy c_rho_peratom 
1 2 0.05 0.05 0 0 159.155 
2 2 0.15 0.05 0 0 159.155 
3 2 0.25 0.05 0 0 159.155 
4 2 0.35 0.05 0 0 159.155 
5 2 0.45 0.05 0 0 159.155 
6 2 0.55 0.05 0 0 159.155 
7 1 0.65 0.05 0 0 159.155 
8 1 0.75 0.05 0 0 159.155 
9 1 0.85 0.05 0 0 159.155 
10 1 0.95 0.05 0 0 159.155 
11 1 0.05 0.15 0 0 159.155 
12 1 0.15 0.15 0 0 159.155 
13 1 0.25 0.15 0 0 159.155 
14 1 0.35 0.15 0 0 159.155 
15 1 0.45 0.15 0 0 159.155 
16 1 0.55 0.15 0 0 159.155 
17 1 0.65 0.15 0 0 159.155 
18 1 0.75 0.15 0 0 159.155 
19 1 0.85 0.15 0 0 159.155 
20 1 0.95 0.15 0 0 159.155 
21 1 0.05 0.25 0 0 159.155 
22 1 0.15 0.25 0 0 159.155 
23 1 0.25 0.25 0 0 159.155 
24 1 0.35 0.25 0 0 159.155 
25 1 0.45 0.25 0 0 159.155 
26 1 0.55 0.25 0 0 159.155 
27 1 0.65 0.25 0 0 159.155 
28 1 0.75 0.25 0 0 159.155 
29 1 0.85 0.25 0 0 159.155 
30 1 0.95 0.25 0 0 159.155 
31 1 0.05 0.35 0 0 159.155 
32 1 0.15 0.35 0 0 159.155 
33 1 0.25 0.35 0 0 159.155 
34 1 0.35 0.35 0 0 159.155 
35 1 0.45 0.35 0 0 159.155 
36 1 0.55 0.35 0 0 159.155 
37 1 0.65 0.35 0 0 159.155 
38 1 0.75 0.35 0 0 159.155 
39 1 0.85 0.35 0 0 159.155 
40 1 0.95 0.35 0 0 159.155 
41 1 0.05 0.45 0 0 159.155 
42 1 0.15 0.45 0 0 159.155 
43 1 0.25 0.45 0 0 159.155 
44 1 0.35 0.45 0 0 159.155 
45 1 0.45 0.45 0 0 159.155 
46 1 0.55 0.45 0 0 159.155 
47 1 0.65 0.45 0 0 159.155 
48 1 0.75 0.45 0 0 159.155 
49 1 0.85 0.45 0 0 159.155 
50 1 0.95 0.45 0 0 159.155 
51 1 0.05 0.55 0 0 159.155 
52 1 0.15 0.55 0 0 159.155 
53 1 0.25 0.55 0 0 159.155 
54 1 0.35 0.55 0 0 159.155 
55 1 0.45 0.55 0 0 159.155 
56 1 0.55 0.55 0 0 159.155 
57 1 0.65 0.55 0 0 159.155 
58 1 0.75 0.55 0 0 159.155 
59 1 0.85 0.55 0 0 159.155 
60 1 0.95 0.55 0 0 159.155 
61 1 0.05 0.65 0 0 159.155 
62 1 0.15 0.65 0 0 159.155 
63 1 0.25 0.65 0 0 159.155 
64 1 0.35 0.65 0 0 159.155 
65 1 0.45 0.65 0 0 159.155 
66 1 0.55 0.65 0 0 159.155 
67 1 0.65 0.65 0 0 159.155 
68 1 0.75 0.65 0 0 159.155 
69 1 0.85 0.65 0 0 159.155 
70 1 0.95 0.65 0 0 159.155 
71 1 0.05 0.75 0 0 159.155 
72 1 0.15 0.75 0 0 159.155 
73 1 0.25 0.75 0 0 159.155 
74 1 0.35 0.75 0 0 159.155 
75 1 0.45 0.75 0 0 159.155 
76 1 0.55 0.75 0 0 159.155 
77 1 0.65 0.75 0 0 159.155 
78 1 0.75 0.75 0 0 159.155 
79 1 0.85 0.75 0 0 159.155 
80 1 0.95 0.75 0 0 159.155 
81 1 0.05 0.85 0 0 159.155 
82 1 0.15 0.85 0 0 159.155 
83 1 0.25 0.85 0 0 159.155 
84 1 0.35 0.85 0 0 159.155 
85 1 0.45 0.85 0 0 159.155 
86 1 0.55 0.85 0 0 159.155 
87 1 0.65 0.85 0 0 159.155 
88 1 0.75 0.85 0 0 159.155 
89 1 0.85 0.85 0 0 159.155 
90 1 0.95 0.85 0 0 159.155 
91 1 0.05 0.95 0 0 159.155 
92 1 0.15 0.95 0 0 159.155 
93 1 0.25 0.95 0 0 159.155 
94 1 0.35 0.95 0 0 159.155 
95 1 0.45 0.95 0 0 159.155 
96 1 0.55 0.95 0 0 159.155 
97 1 0.65 0.95 0 0 159.155 
98 1 0.75 0.95 0 0 159.155 
99 1 0.85 0.95 0 0 159.155 
100 1 0.95 0.95 0 0 159.155 
ITEM: TIMESTEP
1
ITEM: NUMBER OF ATOMS
100
ITEM: BOX BOUNDS pp pp pp
0 1
0 1
-0.0333333 0.1
ITEM: ATOMS id type x y vx vy c_rho_peratom 
1 2 0.05 0.05 1.1e-05 1.00041e-11 159.155 
2 2 0.15 0.05 -8.89154e-16 -8.13836e-15 159.155 
3 2 0.25 0.05 1.16415e-15 4.06918e-15 159.155 
4 2 0.35 0.05 -3.49246e-15 4.06918e-15 159.155 
5 2 0.45 0.05 4.88161e-15 -8.13836e-15 159.155 
6 2 0.55 0.05 8.99999e-06 1.00041e-11 159.155 
7 1 0.65 0.05 5.64193e-12 4.29e-24 159.155 
8 1 0.75 0.05 0 4.29274e-24 159.155 
9 1 0.85 0.05 0 4.29274e-24 159.155 
10 1 0.95 0.05 2.14637e-24 4.29274e-24 159.155 
11 1 0.05 0.15 4.29274e-24 -2.14637e-24 159.155 
12 1 0.15 0.15 -4.29274e-24 -4.29274e-24 159.155 
13 1 0.25 0.15 4.29274e-24 -4.29274e-24 159.155 
14 1 0.35 0.15 -4.29274e-24 -4.29274e-24 159.155 
15 1 0.45 0.15 4.29274e-24 -4.29274e-24 159.155 
16 1 0.55 0.15 -9.65866e-34 -2.14637e-24 159.155 
17 1 0.65 0.15 -4.29274e-24 -4.29274e-24 159.155 
18 1 0.75 0.15 0 -4.29274e-24 159.155 
19 1 0.85 0.15 0 -4.29274e-24 159.155 
20 1 0.95 0.15 0 -4.29274e-24 159.155 
21 1 0.05 0.25 4.29274e-24 4.29274e-24 159.155 
22 1 0.15 0.25 -4.29274e-24 4.29274e-24 159.155 
23 1 0.25 0.25 4.29274e-24 4.29274e-24 159.155 
24 1 0.35 0.25 -4.29274e-24 4.29274e-24 159.155 
25 1 0.45 0.25 4.29274e-24 4.29274e-24 159.155 
26 1 0.55 0.25 0 4.29274e-24 159.155 
27 1 0.65 0.25 -4.29274e-24 4.29274e-24 159.155 
28 1 0.75 0.25 0 4.29274e-24 159.155 
29 1 0.85 0.25 0 4.29274e-24 159.155 
30 1 0.95 0.25 0 4.29274e-24 159.155 
31 1 0.05 0.35 4.29274e-24 -4.29274e-24 159.155 
32 1 0.15 0.35 -4.29274e-24 -4.29274e-24 159.155 
33 1 0.25 0.35 4.29274e-24 -4.29274e-24 159.155 
34 1 0.35 0.35 -4.29274e-24 -4.29274e-24 159.155 
35 1 0.45 0.35 4.29274e-24 -4.29274e-24 159.155 
36 1 0.55 0.35 0 -4.29274e-24 159.155 
37 1 0.65 0.35 -4.29274e-24 -4.29274e-24 159.155 
38 1 0.75 0.35 0 -4.29274e-24 159.155 
39 1 0.85 0.35 0 -4.29274e-24 159.155 
40 1 0.95 0.35 0 -4.29274e-24 159.155 
41 1 0.05 0.45 4.29274e-24 4.29274e-24 159.155 
42 1 0.15 0.45 -4.29274e-24 4.29274e-24 159.155 
43 1 0.25 0.45 4.29274e-24 4.29274e-24 159.155 
44 1 0.35 0.45 -4.29274e-24 4.29274e-24 159.155 
45 1 0.45 0.45 4.29274e-24 4.29274e-24 159.155 
46 1 0.55 0.45 0 4.29274e-24 159.155 
47 1 0.65 0.45 -4.29274e-24 4.29274e-24 159.155 
48 1 0.75 0.45 0 4.29274e-24 159.155 
49 1 0.85 0.45 0 4.29274e-24 159.155 
50 1 0.95 0.45 0 4.29274e-24 159.155 
51 1 0.05 0.55 4.29274e-24 0 159.155 
52 1 0.15 0.55 -4.29274e-24 0 159.155 
53 1 0.25 0.55 4.29274e-24 0 159.155 
54 1 0.35 0.55 -4.29274e-24 0 159.155 
55 1 0.45 0.55 4.29274e-24 0 159.155 
56 1 0.55 0.55 0 0 159.155 
57 1 0.65 0.55 -4.29274e-24 0 159.155 
58 1 0.75 0.55 0 0 159.155 
59 1 0.85 0.55 0 0 159.155 
60 1 0.95 0.55 0 0 159.155 
61 1 0.05 0.65 4.29274e-24 -4.29274e-24 159.155 
62 1 0.15 0.65 -4.29274e-24 -4.29274e-24 159.155 
63 1 0.25 0.65 4.29274e-24 -4.29274e-24 159.155 
64 1 0.35 0.65 -4.29274e-24 -4.29274e-24 159.155 
65 1 0.45 0.65 4.29274e-24 -4.29274e-24 159.155 
66 1 0.55 0.65 0 -4.29274e-24 159.155 
67 1 0.65 0.65 -4.29274e-24 -4.29274e-24 159.155 
68 1 0.75 0.65 0 -4.29274e-24 159.155 
69 1 0.85 0.65 0 -4.29274e-24 159.155 
70 1 0.95 0.65 0 -4.29274e-24 159.155 
71 1 0.05 0.75 4.29274e-24 0 159.155 
72 1 0.15 0.75 -4.29274e-24 0 159.155 
73 1 0.25 0.75 4.29274e-24 0 159.155 
74 1 0.35 0.75 -4.29274e-24 0 159.155 
75 1 0.45 0.75 4.29274e-24 0 159.155 
76 1 0.55 0.75 0 0 159.155 
77 1 0.65 0.75 -4.29274e-24 0 159.155 
78 1 0.75 0.75 0 0 159.155 
79 1 0.85 0.75 0 0 159.155 
80 1 0.95 0.75 0 0 159.155 
81 1 0.05 0.85 4.29274e-24 0 159.155 
82 1 0.15 0.85 -4.29274e-24 0 159.155 
83 1 0.25 0.85 4.29274e-24 0 159.155 
84 1 0.35 0.85 -4.29274e-24 0 159.155 
85 1 0.45 0.85 4.29274e-24 0 159.155 
86 1 0.55 0.85 0 0 159.155 
87 1 0.65 0.85 -4.29274e-24 0 159.155 
88 1 0.75 0.85 0 0 159.155 
89 1 0.85 0.85 0 0 159.155 
90 1 0.95 0.85 0 0 159.155 
91 1 0.05 0.95 4.29274e-24 0 159.155 
92 1 0.15 0.95 -4.29274e-24 0 159.155 
93 1 0.25 0.95 4.29274e-24 0 159.155 
94 1 0.35 0.95 -4.29274e-24 0 159.155 
95 1 0.45 0.95 4.29274e-24 0 159.155 
96 1 0.55 0.95 -9.65866e-34 0 159.155 
97 1 0.65 0.95 -4.29274e-24 0 159.155 
98 1 0.75 0.95 0 0 159.155 
99 1 0.85 0.95 0 0 159.155 
100 1 0.95 0.95 0 0 159.155 
ITEM: TIMESTEP
2
ITEM: NUMBER OF ATOMS
100
ITEM: BOX BOUNDS pp pp pp
0 1
0 1
-0.0333333 0.1
ITEM: ATOMS id type x y vx vy c_rho_peratom 
1 2 0.05 0.05 2.2e-05 2.0025e-11 159.155 
2 2 0.15 0.05 -1.84246e-15 -4.99928e-14 159.155 
3 2 0.25 0.05 2.32831e-15 2.49964e-14 159.155 
4 2 0.35 0.05 -5.82077e-15 2.49964e-14 159.155 
5 2 0.45 0.05 1.06632e-14 -4.99928e-14 159.155 
6 2 0.55 0.05 1.79999e-05 2.0025e-11 159.155 
7 1 0.65 0.05 1.01555e-10 8.39835e-24 159.155 
8 1 0.75 0.05 5.15129e-23 8.58548e-24 159.155 
9 1 0.85 0.05 0 8.58548e-24 159.155 
10 1 0.95 0.05 6.43911e-24 8.58548e-24 159.155 
11 1 0.05 0.15 8.58548e-24 1.00879e-22 159.155 
12 1 0.15 0.15 -8.58548e-24 -8.58548e-24 159.155 
13 1 0.25 0.15 8.58548e-24 -8.58548e-24 159.155 
14 1 0.35 0.15 -8.58548e-24 -8.58548e-24 159.155 
15 1 0.45 0.15 8.58548e-24 -8.58548e-24 159.155 
16 1 0.55 0.15 -1.91241e-31 1.00879e-22 159.155 
17 1 0.65 0.15 -8.58548e-24 -8.58548e-24 159.155 
18 1 0.75 0.15 0 -8.58548e-24 159.155 
19 1 0.85 0.15 0 -8.58548e-24 159.155 
20 1 0.95 0.15 0 -8.58548e-24 159.155 
21 1 0.05 0.25 8.58548e-24 8.58548e-24 159.155 
22 1 0.15 0.25 -8.58548e-24 8.58548e-24 159.155 
23 1 0.25 0.25 8.58548e-24 8.58548e-24 159.155 
24 1 0.35 0.25 -8.58548e-24 8.58548e-24 159.155 
25 1 0.45 0.25 8.58548e-24 8.58548e-24 159.155 
26 1 0.55 0.25 0 8.58548e-24 159.155 
27 1 0.65 0.25 -8.58548e-24 8.58548e-24 159.155 
28 1 0.75 0.25 0 8.58548e-24 159.155 
29 1 0.85 0.25 0 8.58548e-24 159.155 
30 1 0.95 0.25 0 8.58548e-24 159.155 
31 1 0.05 0.35 8.58548e-24 -8.58548e-24 159.155 
32 1 0.15 0.35 -8.58548e-24 -8.58548e-24 159.155 
33 1 0.25 0.35 8.58548e-24 -8.58548e-24 159.155 
34 1 0.35 0.35 -8.58548e-24 -8.58548e-24 159.155 
35 1 0.45 0.35 8.58548e-24 -8.58548e-24 159.155 
36 1 0.55 0.35 0 -8.58548e-24 159.155 
37 1 0.65 0.35 -8.58548e-24 -8.58548e-24 159.155 
38 1 0.75 0.35 0 -8.58548e-24 159.155 
39 1 0.85 0.35 0 -8.58548e-24 159.155 
40 1 0.95 0.35 0 -8.58548e-24 159.155 
41 1 0.05 0.45 8.58548e-24 8.58548e-24 159.155 
42 1 0.15 0.45 -8.58548e-24 8.58548e-24 159.155 
43 1 0.25 0.45 8.58548e-24 8.58548e-24 159.155 
44 1 0.35 0.45 -8.58548e-24 8.58548e-24 159.155 
45 1 0.45 0.45 8.58548e-24 8.58548e-24 159.155 
46 1 0.55 0.45 0 8.58548e-24 159.155 
47 1 0.65 0.45 -8.58548e-24 8.58548e-24 159.155 
48 1 0.75 0.45 0 8.58548e-24 159.155 
49 1 0.85 0.45 0 8.58548e-24 159.155 
50 1 0.95 0.45 0 8.58548e-24 159.155 
51 1 0.05 0.55 8.58548e-24 0 159.155 
52 1 0.15 0.55 -8.58548e-24 0 159.155 
53 1 0.25 0.55 8.58548e-24 0 159.155 
54 1 0.35 0.55 -8.58548e-24 0 159.155 
55 1 0.45 0.55 8.58548e-24 0 159.155 
56 1 0.55 0.55 0 0 159.155 
57 1 0.65 0.55 -8.58548e-24 0 159.155 
58 1 0.75 0.55 0 0 159.155 
59 1 0.85 0.55 0 0 159.155 
60 1 0.95 0.55 0 0 159.155 
61 1 0.05 0.65 8.58548e-24 -8.58548e-24 159.155 
62 1 0.15 0.65 -8.58548e-24 -8.58548e-24 159.155 
63 1 0.25 0.65 8.58548e-24 -8.58548e-24 159.155 
64 1 0.35 0.65 -8.58548e-24 -8.58548e-24 159.155 
65 1 0.45 0.65 8.58548e-24 -8.58548e-24 159.155 
66 1 0.55 0.65 0 -8.58548e-24 159.155 
67 1 0.65 0.65 -8.58548e-24 -8.58548e-24 159.155 
68 1 0.75 0.65 0 -8.58548e-24 159.155 
69 1 0.85 0.65 0 -8.58548e-24 159.155 
70 1 0.95 0.65 0 -8.58548e-24 159.155 
71 1 0.05 0.75 8.58548e-24 0 159.155 
72 1 0.15 0.75 -8.58548e-24 0 159.155 
73 1 0.25 0.75 8.58548e-24 0 159.155 
74 1 0.35 0.75 -8.58548e-24 0 159.155 
75 1 0.45 0.75 8.58548e-24 0 159.155 
76 1 0.55 0.75 0 0 159.155 
77 1 0.65 0.75 -8.58548e-24 0 159.155 
78 1 0.75 0.75 0 0 159.155 
79 1 0.85 0.75 0 0 159.155 
80 1 0.95 0.75 0 0 159.155 
81 1 0.05 0.85 8.58548e-24 0 159.155 
82 1 0.15 0.85 -8.58548e-24 0 159.155 
83 1 0.25 0.85 8.58548e-24 0 159.155 
84 1 0.35 0.85 -8.58548e-24 0 159.155 
85 1 0.45 0.85 8.58548e-24 0 159.155 
86 1 0.55 0.85 0 0 159.155 
87 1 0.65 0.85 -8.58548e-24 0 159.155 
88 1 0.75 0.85 0 0 159.155 
89 1 0.85 0.85 0 0 159.155 
90 1 0.95 0.85 0 0 159.155 
91 1 0.05 0.95 8.58548e-24 2.14637e-24 159.155 
92 1 0.15 0.95 -8.58548e-24 0 159.155 
93 1 0.25 0.95 8.58548e-24 0 159.155 
94 1 0.35 0.95 -8.58548e-24 0 159.155 
95 1 0.45 0.95 8.58548e-24 0 159.155 
96 1 0.55 0.95 -1.93173e-33 2.14637e-24 159.155 
97 1 0.65 0.95 -8.58548e-24 0 159.155 
98 1 0.75 0.95 0 0 159.155 
99 1 0.85 0.95 0 0 159.155 
100 1 0.95 0.95 0 0 159.155 
ITEM: TIMESTEP
3
ITEM: NUMBER OF ATOMS
100
ITEM: BOX BOUNDS pp pp pp
0 1
0 1
-0.0333333 0.1
ITEM: ATOMS id type x y vx vy c_rho_peratom 
1 2 0.05 0.05 3.3e-05 3.00796e-11 159.155 
2 2 0.15 0.05 5.68386e-16 -1.59279e-13 159.155 
3 2 0.25 0.05 4.65661e-15 7.96397e-14 159.155 
4 2 0.35 0.05 -8.14907e-15 7.96397e-14 159.155 
5 2 0.45 0.05 1.59165e-14 -1.59279e-13 159.155 
6 2 0.55 0.05 2.69994e-05 3.00796e-11 159.155 
7 1 0.65 0.05 6.48814e-10 1.04483e-23 159.155 
8 1 0.75 0.05 1.15389e-20 1.28782e-23 159.155 
9 1 0.85 0.05 0 1.28782e-23 159.155 
10 1 0.95 0.05 1.07318e-23 1.28782e-23 159.155 
11 1 0.05 0.15 1.28782e-23 7.51229e-22 159.155 
12 1 0.15 0.15 -1.28782e-23 -1.28782e-23 159.155 
13 1 0.25 0.15 1.28782e-23 -1.28782e-23 159.155 
14 1 0.35 0.15 -1.28782e-23 -1.28782e-23 159.155 
15 1 0.45 0.15 1.28782e-23 -1.28782e-23 159.155 
16 1 0.55 0.15 -2.6059e-30 7.51229e-22 159.155 
17 1 0.65 0.15 -1.28782e-23 -1.28782e-23 159.155 
18 1 0.75 0.15 0 -1.28782e-23 159.155 
19 1 0.85 0.15 0 -1.28782e-23 159.155 
20 1 0.95 0.15 0 -1.28782e-23 159.155 
21 1 0.05 0.25 1.28782e-23 1.28782e-23 159.155 
22 1 0.15 0.25 -1.28782e-23 1.28782e-23 159.155 
23 1 0.25 0.25 1.28782e-23 1.28782e-23 159.155 
24 1 0.35 0.25 -1.28782e-23 1.28782e-23 159.155 
25 1 0.45 0.25 1.28782e-23 1.28782e-23 159.155 
26 1 0.55 0.25 0 1.28782e-23 159.155 
27 1 0.65 0.25 -1.28782e-23 1.28782e-23 159.155 
28 1 0.75 0.25 0 1.28782e-23 159.155 
29 1 0.85 0.25 0 1.28782e-23 159.155 
30 1 0.95 0.25 0 1.28782e-23 159.155 
31 1 0.05 0.35 1.28782e-23 -1.28782e-23 159.155 
32 1 0.15 0.35 -1.28782e-23 -1.28782e-23 159.155 
33 1 0.25 0.35 1.28782e-23 -1.28782e-23 159.155 
34 1 0.35 0.35 -1.28782e-23 -1.28782e-23 159.155 
35 1 0.45 0.35 1.28782e-23 -1.28782e-23 159.155 
36 1 0.55 0.35 0 -1.28782e-23 159.155 
37 1 0.65 0.35 -1.28782e-23 -1.28782e-23 159.155 
38 1 0.75 0.35 0 -1.28782e-23 159.155 
39 1 0.85 0.35 0 -1.28782e-23 159.155 
40 1 0.95 0.35 0 -1.28782e-23 159.155 
41 1 0.05 0.45 1.28782e-23 1.28782e-23 159.155 
42 1 0.15 0.45 -1.28782e-23 1.28782e-23 159.155 
43 1 0.25 0.45 1.28782e-23 1.28782e-23 159.155 
44 1 0.35 0.45 -1.28782e-23 1.28782e-23 159.155 
45 1 0.45 0.45 1.28782e-23 1.28782e-23 159.155 
46 1 0.55 0.45 0 1.28782e-23 159.155 
47 1 0.65 0.45 -1.28782e-23 1.28782e-23 159.155 
48 1 0.75 0.45 0 1.28782e-23 159.155 
49 1 0.85 0.45 0 1.28782e-23 159.155 
50 1 0.95 0.45 0 1.28782e-23 159.155 
51 1 0.05 0.55 1.28782e-23 0 159.155 
52 1 0.15 0.55 -1.28782e-23 0 159.155 
53 1 0.25 0.55 1.28782e-23 0 159.155 
54 1 0.35 0.55 -1.28782e-23 0 159.155 
55 1 0.45 0.55 1.28782e-23 0 159.155 
56 1 0.55 0.55 0 0 159.155 
57 1 0.65 0.55 -1.28782e-23 0 159.155 
58 1 0.75 0.55 0 0 159.155 
59 1 0.85 0.55 0 0 159.155 
60 1 0.95 0.55 0 0 159.155 
61 1 0.05 0.65 1.28782e-23 -1.28782e-23 159.155 
62 1 0.15 0.65 -1.28782e-23 -1.28782e-23 159.155 
63 1 0.25 0.65 1.28782e-23 -1.28782e-23 159.155 
64 1 0.35 0.65 -1.28782e-23 -1.28782e-23 159.155 
65 1 0.45 0.65 1.28782e-23 -1.28782e-23 159.155 
66 1 0.55 0.65 0 -1.28782e-23 159.155 
67 1 0.65 0.65 -1.28782e-23 -1.28782e-23 159.155 
68 1 0.75 0.65 0 -1.28782e-23 159.155 
69 1 0.85 0.65 0 -1.28782e-23 159.155 
70 1 0.95 0.65 0 -1.28782e-23 159.155 
71 1 0.05 0.75 1.28782e-23 0 159.155 
72 1 0.15 0.75 -1.28782e-23 0 159.155 
73 1 0.25 0.75 1.28782e-23 0 159.155 
74 1 0.35 0.75 -1.28782e-23 0 159.155 
75 1 0.45 0.75 1.28782e-23 0 159.155 
76 1 0.55 0.75 0 0 159.155 
77 1 0.65 0.75 -1.28782e-23 0 159.155 
78 1 0.75 0.75 0 0 159.155 
79 1 0.85 0.75 0 0 159.155 
80 1 0.95 0.75 0 0 159.155 
81 1 0.05 0.85 1.28782e-23 0 159.155 
82 1 0.15 0.85 -1.28782e-23 0 159.155 
83 1 0.25 0.85 1.28782e-23 0 159.155 
84 1 0.35 0.85 -1.28782e-23 0 159.155 
85 1 0.45 0.85 1.28782e-23 0 159.155 
86 1 0.55 0.85 0 0 159.155 
87 1 0.65 0.85 -1.28782e-23 0 159.155 
88 1 0.75 0.85 0 0 159.155 
89 1 0.85 0.85 0 0 159.155 
90 1 0.95 0.85 0 0 159.155 
91 1 0.05 0.95 1.28782e-23 6.43911e-24 159.155 
92 1 0.15 0.95 -1.28782e-23 0 159.155 
93 1 0.25 0.95 1.28782e-23 0 159.155 
94 1 0.35 0.95 -1.28782e-23 0 159.155 
95 1 0.45 0.95 1.28782e-23 0 159.155 
96 1 0.55 0.95 -1.93173e-33 6.43911e-24 159.155 
97 1 0.65 0.95 -1.28782e-23 0 159.155 
98 1 0.75 0.95 0 0 159.155 
99 1 0.85 0.95 0 0 159.155 
100 1 0.95 0.95 0 0 159.155 
ITEM: TIMESTEP
4
ITEM: NUMBER OF ATOMS
100
ITEM: BOX BOUNDS pp pp pp
0 1
0 1
-0.0333333 0.1
ITEM: ATOMS id type x y vx vy c_rho_peratom 
1 2 0.05 0.05 4.4e-05 4.01849e-11 159.155 
2 2 0.15 0.05 5.11508e-15 -3.69714e-13 159.155 
3 2 0.25 0.05 6.98492e-15 1.84857e-13 159.155 
4 2 0.35 0.05 -1.04774e-14 1.84857e-13 159.155 
5 2 0.45 0.05 2.27056e-14 -3.69714e-13 159.155 
6 2 0.55 0.05 3.59974e-05 4.01849e-11 159.155 
7 1 0.65 0.05 2.55004e-09 1.05508e-24 159.155 
8 1 0.75 0.05 5.03178e-19 1.7171e-23 159.155 
9 1 0.85 0.05 0 1.7171e-23 159.155 
10 1 0.95 0.05 1.50246e-23 1.7171e-23 159.155 
11 1 0.05 0.15 1.71709e-23 3.0398e-21 159.155 
12 1 0.15 0.15 -1.7171e-23 -1.7171e-23 159.155 
13 1 0.25 0.15 1.7171e-23 -1.7171e-23 159.155 
14 1 0.35 0.15 -1.7171e-23 -1.7171e-23 159.155 
15 1 0.45 0.15 1.7171e-23 -1.7171e-23 159.155 
16 1 0.55 0.15 -1.73834e-29 3.0398e-21 159.155 
17 1 0.65 0.15 -1.7171e-23 -1.7171e-23 159.155 
18 1 0.75 0.15 0 -1.7171e-23 159.155 
19 1 0.85 0.15 0 -1.7171e-23 159.155 
20 1 0.95 0.15 0 -1.7171e-23 159.155 
21 1 0.05 0.25 1.7171e-23 1.7171e-23 159.155 
22 1 0.15 0.25 -1.7171e-23 1.7171e-23 159.155 
23 1 0.25 0.25 1.7171e-23 1.7171e-23 159.155 
24 1 0.35 0.25 -1.7171e-23 1.7171e-23 159.155 
25 1 0.45 0.25 1.7171e-23 1.7171e-23 159.155 
26 1 0.55 0.25 0 1.7171e-23 159.155 
27 1 0.65 0.25 -1.7171e-23 1.7171e-23 159.155 
28 1 0.75 0.25 0 1.7171e-23 159.155 
29 1 0.85 0.25 0 1.7171e-23 159.155 
30 1 0.95 0.25 0 1.7171e-23 159.155 
31 1 0.05 0.35 1.7171e-23 -1.7171e-23 159.155 
32 1 0.15 0.35 -1.7171e-23 -1.7171e-23 159.155 
33 1 0.25 0.35 1.7171e-23 -1.7171e-23 159.155 
34 1 0.35 0.35 -1.7171e-23 -1.7171e-23 159.155 
35 1 0.45 0.35 1.7171e-23 -1.7171e-23 159.155 
36 1 0.55 0.35 0 -1.7171e-23 159.155 
37 1 0.65 0.35 -1.7171e-23 -1.7171e-23 159.155 
38 1 0.75 0.35 0 -1.7171e-23 159.155 
39 1 0.85 0.35 0 -1.7171e-23 159.155 
40 1 0.95 0.35 0 -1.7171e-23 159.155 
41 1 0.05 0.45 1.7171e-23 1.7171e-23 159.155 
42 1 0.15 0.45 -1.7171e-23 1.7171e-23 159.155 
43 1 0.25 0.45 1.7171e-23 1.7171e-23 159.155 
44 1 0.35 0.45 -1.7171e-23 1.7171e-23 159.155 
45 1 0.45 0.45 1.7171e-23 1.7171e-23 159.155 
46 1 0.55 0.45 0 1.7171e-23 159.155 
47 1 0.65 0.45 -1.7171e-23 1.7171e-23 159.155 
48 1 0.75 0.45 0 1.7171e-23 159.155 
49 1 0.85 0.45 0 1.7171e-23 159.155 
50 1 0.95 0.45 0 1.7171e-23 159.155 
51 1 0.05 0.55 1.7171e-23 0 159.155 
52 1 0.15 0.55 -1.7171e-23 0 159.155 
53 1 0.25 0.55 1.7171e-23 0 159.155 
54 1 0.35 0.55 -1.7171e-23 0 159.155 
55 1 0.45 0.55 1.7171e-23 0 159.155 
56 1 0.55 0.55 0 0 159.155 
57 1 0.65 0.55 -1.7171e-23 0 159.155 
58 1 0.75 0.55 0 0 159.155 
59 1 0.85 0.55 0 0 159.155 
60 1 0.95 0.55 0 0 159.155 
61 1 0.05 0.65 1.7171e-23 -1.7171e-23 159.155 
62 1 0.15 0.65 -1.7171e-23 -1.7171e-23 159.155 
63 1 0.25 0.65 1.7171e-23 -1.7171e-23 159.155 
64 1 0.35 0.65 -1.7171e-23 -1.7171e-23 159.155 
65 1 0.45 0.65 1.7171e-23 -1.7171e-23 159.155 
66 1 0.55 0.65 0 -1.7171e-23 159.155 
67 1 0.65 0.65 -1.7171e-23 -1.7171e-23 159.155 
68 1 0.75 0.65 0 -1.7171e-23 159.155 
69 1 0.85 0.65 0 -1.7171e-23 159.155 
70 1 0.95 0.65 0 -1.7171e-23 159.155 
71 1 0.05 0.75 1.7171e-23 0 159.155 
72 1 0.15 0.75 -1.7171e-23 0 159.155 
73 1 0.25 0.75 1.7171e-23 0 159.155 
74 1 0.35 0.75 -1.7171e-23 0 159.155 
75 1 0.45 0.75 1.7171e-23 0 159.155 
76 1 0.55 0.75 0 0 159.155 
77 1 0.65 0.75 -1.7171e-23 0 159.155 
78 1 0.75 0.75 0 0 159.155 
79 1 0.85 0.75 0 0 159.155 
80 1 0.95 0.75 0 0 159.155 
81 1 0.05 0.85 1.7171e-23 0 159.155 
82 1 0.15 0.85 -1.7171e-23 0 159.155 
83 1 0.25 0.85 1.7171e-23 0 159.155 
84 1 0.35 0.85 -1.7171e-23 0 159.155 
85 1 0.45 0.85 1.7171e-23 0 159.155 
86 1 0.55 0.85 0 0 159.155 
87 1 0.65 0.85 -1.7171e-23 0 159.155 
88 1 0.75 0.85 0 0 159.155 
89 1 0.85 0.85 0 0 159.155 
90 1 0.95 0.85 0 0 159.155 
91 1 0.05 0.95 1.7171e-23 1.07318e-23 159.155 
92 1 0.15 0.95 -1.7171e-23 0 159.155 
93 1 0.25 0.95 1.7171e-23 0 159.155 
94 1 0.35 0.95 -1.7171e-23 0 159.155 
95 1 0.45 0.95 1.7171e-23 0 159.155 
96 1 0.55 0.95 -1.93173e-33 1.07318e-23 159.155 
97 1 0.65 0.95 -1.7171e-23 0 159.155 
98 1 0.75 0.95 0 0 159.155 
99 1 0.85 0.95 0 0 159.155 
100 1 0.95 0.95 0 0 159.155 
ITEM: TIMESTEP
5
ITEM: NUMBER OF ATOMS
100
ITEM: BOX BOUNDS pp pp pp
0 1
0 1
-0.0333333 0.1
ITEM: ATOMS id type x y vx vy c_rho_peratom 
1 2 0.05 0.05 5.5e-05 5.03587e-11 159.155 
2 2 0.15 0.05 1.28976e-14 -7.1792e-13 159.155 
3 2 0.25 0.05 9.31323e-15 3.5925e-13 159.155 
4 2 0.35 0.05 -1.28057e-14 3.5925e-13 159.155 
5 2 0.45 0.05 3.42586e-14 -7.1792e-13 159.155 
6 2 0.55 0.05 4.49925e-05 5.03587e-11 159.155 
7 1 0.65 0.05 7.51982e-09 -5.05558e-23 159.155 
8 1 0.75 0.05 8.83817e-18 2.14637e-23 159.155 
9 1 0.85 0.05 0 2.14637e-23 159.155 
10 1 0.95 0.05 1.93173e-23 2.14637e-23 159.155 
11 1 0.05 0.15 2.14636e-23 9.02924e-21 159.155 
12 1 0.15 0.15 -2.14637e-23 -2.14637e-23 159.155 
13 1 0.25 0.15 2.14637e-23 -2.14637e-23 159.155 
14 1 0.35 0.15 -2.14637e-23 -2.14637e-23 159.155 
15 1 0.45 0.15 2.14637e-23 -2.14637e-23 159.155 
16 1 0.55 0.15 -7.77497e-29 9.02924e-21 159.155 
17 1 0.65 0.15 -2.14637e-23 -2.14637e-23 159.155 
18 1 0.75 0.15 0 -2.14637e-23 159.155 
19 1 0.85 0.15 0 -2.14637e-23 159.155 
20 1 0.95 0.15 0 -2.14637e-23 159.155 
21 1 0.05 0.25 2.14637e-23 2.14637e-23 159.155 
22 1 0.15 0.25 -2.14637e-23 2.14637e-23 159.155 
23 1 0.25 0.25 2.14637e-23 2.14637e-23 159.155 
24 1 0.35 0.25 -2.14637e-23 2.14637e-23 159.155 
25 1 0.45 0.25 2.14637e-23 2.14637e-23 159.155 
26 1 0.55 0.25 0 2.14637e-23 159.155 
27 1 0.65 0.25 -2.14637e-23 2.14637e-23 159.155 
28 1 0.75 0.25 0 2.14637e-23 159.155 
29 1 0.85 0.25 0 2.14637e-23 159.155 
30 1 0.95 0.25 0 2.14637e-23 159.155 
31 1 0.05 0.35 2.14637e-23 -2.14637e-23 159.155 
32 1 0.15 0.35 -2.14637e-23 -2.14637e-23 159.155 
33 1 0.25 0.35 2.14637e-23 -2.14637e-23 159.155 
34 1 0.35 0.35 -2.14637e-23 -2.14637e-23 159.155 
35 1 0.45 0.35 2.14637e-23 -2.14637e-23 159.155 
36 1 0.55 0.35 0 -2.14637e-23 159.155 
37 1 0.65 0.35 -2.14637e-23 -2.14637e-23 159.155 
38 1 0.75 0.35 0 -2.14637e-23 159.155 
39 1 0.85 0.35 0 -2.14637e-23 159.155 
40 1 0.95 0.35 0 -2.14637e-23 159.155 
41 1 0.05 0.45 2.14637e-23 2.14637e-23 159.155 
42 1 0.15 0.45 -2.14637e-23 2.14637e-23 159.155 
43 1 0.25 0.45 2.14637e-23 2.14637e-23 159.155 
44 1 0.35 0.45 -2.14637e-23 2.14637e-23 159.155 
45 1 0.45 0.45 2.14637e-23 2.14637e-23 159.155 
46 1 0.55 0.45 0 2.14637e-23 159.155 
47 1 0.65 0.45 -2.14637e-23 2.14637e-23 159.155 
48 1 0.75 0.45 0 2.14637e-23 159.155 
49 1 0.85 0.45 0 2.14637e-23 159.155 
50 1 0.95 0.45 0 2.14637e-23 159.155 
51 1 0.05 0.55 2.14637e-23 0 159.155 
52 1 0.15 0.55 -2.14637e-23 0 159.155 
53 1 0.25 0.55 2.14637e-23 0 159.155 
54 1 0.35 0.55 -2.14637e-23 0 159.155 
55 1 0.45 0.55 2.14637e-23 0 159.155 
56 1 0.55 0.55 0 0 159.155 
57 1 0.65 0.55 -2.14637e-23 0 159.155 
58 1 0.75 0.55 0 0 159.155 
59 1 0.85 0.55 0 0 159.155 
60 1 0.95 0.55 0 0 159.155 
61 1 0.05 0.65 2.14637e-23 -2.14637e-23 159.155 
62 1 0.15 0.65 -2.14637e-23 -2.14637e-23 159.155 
63 1 0.25 0.65 2.14637e-23 -2.14637e-23 159.155 
64 1 0.35 0.65 -2.14637e-23 -2.14637e-23 159.155 
65 1 0.45 0.65 2.14637e-23 -2.14637e-23 159.155 
66 1 0.55 0.65 0 -2.14637e-23 159.155 
67 1 0.65 0.65 -2.14637e-23 -2.14637e-23 159.155 
68 1 0.75 0.65 0 -2.14637e-23 159.155 
69 1 0.85 0.65 0 -2.14637e-23 159.155 
70 1 0.95 0.65 0 -2.14637e-23 159.155 
71 1 0.05 0.75 2.14637e-23 0 159.155 
72 1 0.15 0.75 -2.14637e-23 0 159.155 
73 1 0.25 0.75 2.14637e-23 0 159.155 
74 1 0.35 0.75 -2.14637e-23 0 159.155 
75 1 0.45 0.75 2.14637e-23 0 159.155 
76 1 0.55 0.75 0 0 159.155 
77 1 0.65 0.75 -2.14637e-23 0 159.155 
78 1 0.75 0.75 0 0 159.155 
79 1 0.85 0.75 0 0 159.155 
80 1 0.95 0.75 0 0 159.155 
81 1 0.05 0.85 2.14637e-23 0 159.155 
82 1 0.15 0.85 -2.14637e-23 0 159.155 
83 1 0.25 0.85 2.14637e-23 0 159.155 
84 1 0.35 0.85 -2.14637e-23 0 159.155 
85 1 0.45 0.85 2.14637e-23 0 159.155 
86 1 0.55 0.85 0 0 159.155 
87 1 0.65 0.85 -2.14637e-23 0 159.155 
88 1 0.75 0.85 0 0 159.155 
89 1 0.85 0.85 0 0 159.155 
90 1 0.95 0.85 0 0 159.155 
91 1 0.05 0.95 2.14637e-23 1.50246e-23 159.155 
92 1 0.15 0.95 -2.14637e-23 0 159.155 
93 1 0.25 0.95 2.14637e-23 0 159.155 
94 1 0.35 0.95 -2.14637e-23 0 159.155 
95 1 0.45 0.95 2.14637e-23 0 159.155 
96 1 0.55 0.95 -1.93173e-33 1.50246e-23 159.155 
97 1 0.65 0.95 -2.14637e-23 0 159.155 
98 1 0.75 0.95 0 0 159.155 
99 1 0.85 0.95 0 0 159.155 
100 1 0.95 0.95 0 0 159.155 
ITEM: TIMESTEP
6
ITEM: NUMBER OF ATOMS
100
ITEM: BOX BOUNDS pp pp pp
0 1
0 1
-0.0333333 0.1
ITEM: ATOMS id type x y vx vy c_rho_peratom 
1 2 0.05 0.05 6.6e-05 6.06197e-11 159.155 
2 2 0.15 0.05 2.73443e-14 -1.24226e-12 159.155 
3 2 0.25 0.05 1.16415e-14 6.22585e-13 159.155 
4 2 0.35 0.05 -1.5134e-14 6.22585e-13 159.155 
5 2 0.45 0.05 5.03108e-14 -1.24226e-12 159.155 
6 2 0.55 0.05 5.39816e-05 6.06197e-11 159.155 
7 1 0.65 0.05 1.83544e-08 -2.22912e-22 159.155 
8 1 0.75 0.05 9.12309e-17 2.57564e-23 159.155 
9 1 0.85 0.05 0 2.57564e-23 159.155 
10 1 0.95 0.05 2.36101e-23 2.57564e-23 159.155 
11 1 0.05 0.15 2.57561e-23 2.20668e-20 159.155 
12 1 0.15 0.15 -2.57564e-23 -2.57564e-23 159.155 
13 1 0.25 0.15 2.57564e-23 -2.57564e-23 159.155 
14 1 0.35 0.15 -2.57564e-23 -2.57564e-23 159.155 
15 1 0.45 0.15 2.57564e-23 -2.57564e-23 159.155 
16 1 0.55 0.15 -2.67972e-28 2.20668e-20 159.155 
17 1 0.65 0.15 -2.57564e-23 -2.57564e-23 159.155 
18 1 0.75 0.15 0 -2.57564e-23 159.155 
19 1 0.85 0.15 0 -2.57564e-23 159.155 
20 1 0.95 0.15 0 -2.57564e-23 159.155 
21 1 0.05 0.25 2.57564e-23 2.57564e-23 159.155 
22 1 0.15 0.25 -2.57564e-23 2.57564e-23 159.155 
23 1 0.25 0.25 2.57564e-23 2.57564e-23 159.155 
24 1 0.35 0.25 -2.57564e-23 2.57564e-23 159.155 
25 1 0.45 0.25 2.57564e-23 2.57564e-23 159.155 
26 1 0.55 0.25 0 2.57564e-23 159.155 
27 1 0.65 0.25 -2.57564e-23 2.57564e-23 159.155 
28 1 0.75 0.25 0 2.57564e-23 159.155 
29 1 0.85 0.25 0 2.57564e-23 159.155 
30 1 0.95 0.25 0 2.57564e-23 159.155 
31 1 0.05 0.35 2.57564e-23 -2.57564e-23 159.155 
32 1 0.15 0.35 -2.57564e-23 -2.57564e-23 159.155 
33 1 0.25 0.35 2.57564e-23 -2.57564e-23 159.155 
34 1 0.35 0.35 -2.57564e-23 -2.57564e-23 159.155 
35 1 0.45 0.35 2.57564e-23 -2.57564e-23 159.155 
36 1 0.55 0.35 0 -2.57564e-23 159.155 
37 1 0.65 0.35 -2.57564e-23 -2.57564e-23 159.155 
38 1 0.75 0.35 0 -2.57564e-23 159.155 
39 1 0.85 0.35 0 -2.57564e-23 159.155 
40 1 0.95 0.35 0 -2.57564e-23 159.155 
41 1 0.05 0.45 2.57564e-23 2.57564e-23 159.155 
42 1 0.15 0.45 -2.57564e-23 2.57564e-23 159.155 
43 1 0.25 0.45 2.57564e-23 2.57564e-23 159.155 
44 1 0.35 0.45 -2.57564e-23 2.57564e-23 159.155 
45 1 0.45 0.45 2.57564e-23 2.57564e-23 159.155 
46 1 0.55 0.45 0 2.57564e-23 159.155 
47 1 0.65 0.45 -2.57564e-23 2.57564e-23 159.155 
48 1 0.75 0.45 0 2.57564e-23 159.155 
49 1 0.85 0.45 0 2.57564e-23 159.155 
50 1 0.95 0.45 0 2.57564e-23 159.155 
51 1 0.05 0.55 2.57564e-23 0 159.155 
52 1 0.15 0.55 -2.57564e-23 0 159.155 
53 1 0.25 0.55 2.57564e-23 0 159.155 
54 1 0.35 0.55 -2.57564e-23 0 159.155 
55 1 0.45 0.55 2.57564e-23 0 159.155 
56 1 0.55 0.55 0 0 159.155 
57 1 0.65 0.55 -2.57564e-23 0 159.155 
58 1 0.75 0.55 0 0 159.155 
59 1 0.85 0.55 0 0 159.155 
60 1 0.95 0.55 0 0 159.155 
61 1 0.05 0.65 2.57564e-23 -2.57564e-23 159.155 
62 1 0.15 0.65 -2.57564e-23 -2.57564e-23 159.155 
63 1 0.25 0.65 2.57564e-23 -2.57564e-23 159.155 
64 1 0.35 0.65 -2.57564e-23 -2.57564e-23 159.155 
65 1 0.45 0.65 2.57564e-23 -2.57564e-23 159.155 
66 1 0.55 0.65 0 -2.57564e-23 159.155 
67 1 0.65 0.65 -2.57564e-23 -2.57564e-23 159.155 
68 1 0.75 0.65 0 -2.57564e-23 159.155 
69 1 0.85 0.65 0 -2.57564e-23 159.155 
70 1 0.95 0.65 0 -2.57564e-23 159.155 
71 1 0.05 0.75 2.57564e-23 0 159.155 
72 1 0.15 0.75 -2.57564e-23 0 159.155 
73 1 0.25 0.75 2.57564e-23 0 159.155 
74 1 0.35 0.75 -2.57564e-23 0 159.155 
75 1 0.45 0.75 2.57564e-23 0 159.155 
76 1 0.55 0.75 0 0 159.155 
77 1 0.65 0.75 -2.57564e-23 0 159.155 
78 1 0.75 0.75 0 0 159.155 
79 1 0.85 0.75 0 0 159.155 
80 1 0.95 0.75 0 0 159.155 
81 1 0.05 0.85 2.57564e-23 0 159.155 
82 1 0.15 0.85 -2.57564e-23 0 159.155 
83 1 0.25 0.85 2.57564e-23 0 159.155 
84 1 0.35 0.85 -2.57564e-23 0 159.155 
85 1 0.45 0.85 2.57564e-23 0 159.155 
86 1 0.55 0.85 0 0 159.155 
87 1 0.65 0.85 -2.57564e-23 0 159.155 
88 1 0.75 0.85 0 0 159.155 
89 1 0.85 0.85 0 0 159.155 
90 1 0.95 0.85 0 0 159.155 
91 1 0.05 0.95 2.57564e-23 1.93173e-23 159.155 
92 1 0.15 0.95 -2.57564e-23 0 159.155 
93 1 0.25 0.95 2.57564e-23 0 159.155 
94 1 0.35 0.95 -2.57564e-23 0 159.155 
95 1 0.45 0.95 2.57564e-23 0 159.155 
96 1 0.55 0.95 -1.93173e-33 1.93173e-23 159.155 
97 1 0.65 0.95 -2.57564e-23 0 159.155 
98 1 0.75 0.95 0 0 159.155 
99 1 0.85 0.95 0 0 159.155 
100 1 0.95 0.95 0 0 159.155 
ITEM: TIMESTEP
7
ITEM: NUMBER OF ATOMS
100
ITEM: BOX BOUNDS pp pp pp
0 1
0 1
-0.0333333 0.1
ITEM: ATOMS id type x y vx vy c_rho_peratom 
1 2 0.05 0.05 7.7e-05 7.09871e-11 159.155 
2 2 0.15 0.05 4.95552e-14 -1.98227e-12 159.155 
3 2 0.25 0.05 1.39698e-14 9.95205e-13 159.155 
4 2 0.35 0.05 -1.74623e-14 9.95205e-13 159.155 
5 2 0.45 0.05 7.0597e-14 -1.98227e-12 159.155 
6 2 0.55 0.05 6.29608e-05 7.09871e-11 159.155 
7 1 0.65 0.05 3.91994e-08 -6.85361e-22 159.155 
8 1 0.75 0.05 6.57824e-16 3.00492e-23 159.155 
9 1 0.85 0.05 0 3.00492e-23 159.155 
10 1 0.95 0.05 2.79028e-23 3.00492e-23 159.155 
11 1 0.05 0.15 3.00482e-23 4.72872e-20 159.155 
12 1 0.15 0.15 -3.00492e-23 -3.00492e-23 159.155 
13 1 0.25 0.15 3.00492e-23 -3.00492e-23 159.155 
14 1 0.35 0.15 -3.00492e-23 -3.00492e-23 159.155 
15 1 0.45 0.15 3.00492e-23 -3.00492e-23 159.155 
16 1 0.55 0.15 -7.72662e-28 4.72872e-20 159.155 
17 1 0.65 0.15 -3.00492e-23 -3.00492e-23 159.155 
18 1 0.75 0.15 0 -3.00492e-23 159.155 
19 1 0.85 0.15 0 -3.00492e-23 159.155 
20 1 0.95 0.15 0 -3.00492e-23 159.155 
21 1 0.05 0.25 3.00492e-23 3.00492e-23 159.155 
22 1 0.15 0.25 -3.00492e-23 3.00492e-23 159.155 
23 1 0.25 0.25 3.00492e-23 3.00492e-23 159.155 
24 1 0.35 0.25 -3.00492e-23 3.00492e-23 159.155 
25 1 0.45 0.25 3.00492e-23 3.00492e-23 159.155 
26 1 0.55 0.25 0 3.00492e-23 159.155 
27 1 0.65 0.25 -3.00492e-23 3.00492e-23 159.155 
28 1 0.75 0.25 0 3.00492e-23 159.155 
29 1 0.85 0.25 0 3.00492e-23 159.155 
30 1 0.95 0.25 0 3.00492e-23 159.155 
31 1 0.05 0.35 3.00492e-23 -3.00492e-23 159.155 
32 1 0.15 0.35 -3.00492e-23 -3.00492e-23 159.155 
33 1 0.25 0.35 3.00492e-23 -3.00492e-23 159.155 