LAMMPS data file. CGCMM style. atom_style angle generated by VMD/TopoTools v1.2 on Mon Nov 12 18:18:49 CET 2012

10 atoms
9 bonds

1 atom types
1 bond types

0.0000000000000000e+00 7.2119999999999997e-04 xlo xhi
0.0000000000000000e+00 1.8029999999999999e-03 ylo yhi
0.0000000000000000e+00 3.6059999999999998e-04 zlo zhi

Masses

1 1.5625e-11

Atoms

1 2 1.8750000000000002e-10 1.8750000000000002e-10 1.8750000000000002e-10 0 0.0000000000000000e+00 0.0000000000000000e+00 1.0000000000000000e+00 0 0 0
2 2 2.5000187500000001e-05 1.8750000000000002e-10 1.8750000000000002e-10 0 0.0000000000000000e+00 0.0000000000000000e+00 1.0000000000000000e+00 0 0 0
3 2 5.0000187500000005e-05 1.8750000000000002e-10 1.8750000000000002e-10 0 0.0000000000000000e+00 0.0000000000000000e+00 1.0000000000000000e+00 0 0 0
4 2 7.5000187500000003e-05 1.8750000000000002e-10 1.8750000000000002e-10 0 0.0000000000000000e+00 0.0000000000000000e+00 1.0000000000000000e+00 0 0 0
5 2 1.0000018750000000e-04 1.8750000000000002e-10 1.8750000000000002e-10 0 0.0000000000000000e+00 0.0000000000000000e+00 1.0000000000000000e+00 0 0 0
6 2 1.2500018750000001e-04 1.8750000000000002e-10 1.8750000000000002e-10 0 0.0000000000000000e+00 0.0000000000000000e+00 1.0000000000000000e+00 0 0 0
7 2 1.5000018750000000e-04 1.8750000000000002e-10 1.8750000000000002e-10 0 0.0000000000000000e+00 0.0000000000000000e+00 1.0000000000000000e+00 0 0 0
8 2 1.7500018750000001e-04 1.8750000000000002e-10 1.8750000000000002e-10 0 0.0000000000000000e+00 0.0000000000000000e+00 1.0000000000000000e+00 0 0 0
9 2 2.0000018750000002e-04 1.8750000000000002e-10 1.8750000000000002e-10 0 0.0000000000000000e+00 0.0000000000000000e+00 1.0000000000000000e+00 0 0 0
10 2 2.2500018750000000e-04 1.8750000000000002e-10 1.8750000000000002e-10 0 0.0000000000000000e+00 0.0000000000000000e+00 1.0000000000000000e+00 0 0 0

Velocities

1 0.0000000000000000e+00 0.0000000000000000e+00 0.0000000000000000e+00
2 0.0000000000000000e+00 0.0000000000000000e+00 0.0000000000000000e+00
3 0.0000000000000000e+00 0.0000000000000000e+00 0.0000000000000000e+00
4 0.0000000000000000e+00 0.0000000000000000e+00 0.0000000000000000e+00
5 0.0000000000000000e+00 0.0000000000000000e+00 0.0000000000000000e+00
6 0.0000000000000000e+00 0.0000000000000000e+00 0.0000000000000000e+00
7 0.0000000000000000e+00 0.0000000000000000e+00 0.0000000000000000e+00
8 0.0000000000000000e+00 0.0000000000000000e+00 0.0000000000000000e+00
9 0.0000000000000000e+00 0.0000000000000000e+00 0.0000000000000000e+00
10 0.0000000000000000e+00 0.0000000000000000e+00 0.0000000000000000e+00

Bonds

1 1 1 2
2 1 2 3
3 1 3 4
4 1 4 5
5 1 5 6
6 1 6 7
7 1 7 8
8 1 8 9
9 1 9 10
